[ 3 ]
52469
55334
56045
[ 35 ]
52682
55295
55321
55323
55324
55325
55326
55336
55337
55338
55339
55341
[ 36 ]
51932
52466
[ 66 ]
55322
55340
55342
[ 67 ]
51215
51225
52465
52467
52468
52470
52681
53643
55331
55332
[ 68 ]
55333
[ 98 ]
51392
52471
54797
57855
61100
65881
[ 99 ]
50368
51266
51287
51498
51697
51726
51931
51939
52406
52683
54140
54184
54745
55294
55329
55335
55424
55426
55578
55815
55816
55817
56945
56951
56954
57947
61102
[ 100 ]
54717
54720
56041
56950
58323
58457
[ 129 ]
61501
61520
[ 130 ]
50464
51304
51732
51925
51971
52281
52318
52364
52428
53067
53581
53627
53636
54102
55117
55921
56419
56947
57122
57913
57946
58387
59716
59937
60689
60784
60924
60973
60974
61069
61070
62844
63605
63677
64823
65250
65747
65888
69639
[ 131 ]
50442
50448
50454
50470
50476
50611
50613
50637
50694
50780
50873
51026
51200
51237
51246
51262
51267
51275
51277
51300
51357
51410
51412
51414
51450
51513
51701
51711
51713
51721
51737
51764
51782
51829
51930
51935
51940
51941
51943
51950
51972
52041
52178
52205
52258
52259
52288
52296
52343
52351
52355
52398
52438
52460
52484
52496
52504
52508
52566
52586
52619
52621
52770
52929
53072
53122
53124
53126
53151
53184
53238
53514
53516
53542
53584
53593
53642
53647
53676
53685
53729
53767
54037
54207
54505
54543
54706
54719
54723
54724
54725
54727
54731
54746
54789
55083
55113
55243
55244
55327
55330
55344
55369
55382
55383
55398
55403
55577
55618
55808
55814
55837
55844
55917
55934
56042
56043
56044
56143
56296
56306
56324
56326
56430
56431
56503
56516
56523
56578
56584
56591
56596
56649
56650
56659
56660
56664
56753
56853
56922
56938
56948
56949
56953
56958
56974
57507
57516
57871
57884
57977
57978
58105
58243
58413
58434
58545
58582
59059
59128
59140
59186
59427
59521
59558
59667
59669
59700
59704
59717
60004
60264
60316
60851
60976
61091
61097
61101
61256
61280
61357
62602
62686
63184
63601
63603
64540
64555
64803
64967
65759
66741
66800
66812
67296
67335
67934
68058
68113
68130
68380
68424
68856
69763
69767
69902
69913
69973
[ 132 ]
50430
50460
51206
51224
51239
51240
51944
52070
52074
52626
52629
52890
54206
54214
54467
54611
54716
54721
54728
54732
55169
55297
56567
56568
56934
56936
58445
58459
58497
58535
58734
59136
59159
68056
[ 133 ]
50423
58510
[ 134 ]
50426
[ 161 ]
61537
61585
61602
61665
61687
61728
61814
[ 162 ]
50465
50816
50850
50852
51220
51316
51391
51399
51413
51464
51534
51913
52087
52103
52104
52108
52152
52180
52267
52284
52287
52297
52311
52344
52349
52386
52400
52410
52416
52429
52430
52439
52463
52482
52641
53087
53304
53310
53323
53332
53341
53344
53349
53352
53370
53461
53513
53573
53582
53599
53606
53617
53640
53670
53671
53782
54148
54255
54290
54634
54875
54961
55017
55059
55065
55196
55197
55247
55362
55363
55922
55937
55957
56046
56153
56309
56332
56374
56389
56394
56438
56479
56515
56520
56556
56665
56670
56687
56943
57001
57084
57181
57194
57359
57367
57518
57609
57833
57836
57901
57910
57944
57945
57961
57983
58011
58021
58027
58030
58031
58962
58986
58992
59020
59052
59068
59179
59299
59517
59610
59695
59713
59902
59915
59934
60148
60212
60267
60275
60289
60864
60901
60966
61059
61186
61188
61279
61281
61282
61285
61308
61314
61317
61362
61508
61564
61576
61584
61591
61617
61709
61930
62044
62053
62972
63526
63705
63855
64164
64172
64253
64255
64433
64501
64541
64560
64629
64662
64665
64688
64699
64759
64870
64934
64999
65023
65027
65088
65139
65249
65407
65412
65429
65448
65480
65589
65628
65642
65683
65724
65928
65956
66030
66110
66239
66324
66713
66781
66914
67102
67126
67159
67299
67442
67663
67884
68019
68052
68088
68115
68225
68312
68355
68492
68553
68573
68590
68688
68719
68835
68849
68948
69121
69146
69165
69352
69455
69572
69640
69707
69832
69848
69964
[ 163 ]
50356
50401
50437
50443
50452
50467
50471
50475
50483
50484
50485
50615
50622
50633
50636
50646
50654
50655
50755
50778
50840
50853
50872
50874
51071
51077
51088
51089
51101
51169
51177
51186
51192
51207
51217
51218
51219
51221
51227
51233
51243
51250
51253
51257
51273
51274
51286
51289
51302
51309
51343
51388
51398
51411
51415
51416
51465
51467
51472
51474
51488
51578
51591
51700
51702
51705
51706
51707
51708
51716
51720
51722
51731
51747
51755
51770
51777
51809
51904
51920
51924
51933
51934
51942
51949
51951
51952
51959
51960
52037
52039
52055
52061
52065
52073
52080
52081
52084
52089
52095
52100
52124
52145
52146
52159
52174
52179
52201
52206
52208
52217
52231
52242
52251
52254
52257
52265
52273
52274
52306
52321
52330
52332
52333
52334
52335
52340
52353
52361
52372
52375
52376
52379
52383
52385
52423
52432
52437
52440
52447
52461
52464
52481
52485
52487
52500
52523
52524
52552
52558
52560
52563
52564
52565
52570
52583
52597
52600
52603
52608
52610
52611
52612
52617
52623
52631
52632
52633
52636
52639
52643
52649
52656
52685
52694
52696
52697
52703
52714
52727
52728
52748
52763
52767
52772
52773
52896
52897
52905
52916
53041
53061
53068
53079
53100
53115
53134
53148
53152
53155
53156
53175
53176
53178
53179
53250
53343
53345
53502
53517
53544
53570
53580
53583
53586
53588
53589
53591
53594
53595
53596
53597
53598
53600
53601
53603
53604
53605
53607
53609
53615
53619
53626
53629
53638
53639
53645
53648
53649
53651
53652
53654
53656
53673
53675
53679
53691
53734
53735
53739
53741
53749
53772
53868
53878
53880
53916
53975
54023
54044
54141
54192
54205
54224
54267
54271
54317
54322
54324
54326
54339
54415
54417
54434
54473
54478
54487
54494
54506
54526
54546
54582
54599
54610
54670
54685
54705
54713
54714
54718
54726
54744
54747
54748
54749
54787
54796
54816
54828
54966
54969
54970
55061
55075
55093
55109
55111
55115
55118
55119
55144
55175
55176
55190
55202
55221
55246
55250
55296
55298
55308
55310
55328
55359
55368
55397
55414
55423
55425
55433
55528
55543
55562
55571
55574
55579
55586
55596
55617
55780
55813
55839
55841
55847
55915
55943
55952
56064
56099
56112
56278
56307
56316
56317
56337
56340
56342
56344
56366
56371
56377
56384
56385
56386
56388
56390
56401
56408
56409
56448
56463
56478
56506
56507
56508
56511
56513
56519
56521
56525
56526
56528
56531
56548
56549
56551
56555
56560
56561
56562
56563
56564
56566
56569
56587
56588
56590
56597
56603
56616
56618
56619
56630
56641
56644
56646
56651
56676
56679
56680
56684
56686
56707
56755
56769
56770
56773
56776
56782
56788
56814
56832
56835
56869
56871
56873
56876
56877
56878
56902
56903
56924
56932
56935
56939
56941
56955
56957
56959
56960
56973
56978
56986
56987
56999
57139
57190
57191
57213
57220
57233
57239
57241
57249
57259
57276
57293
57297
57304
57306
57318
57320
57321
57327
57328
57361
57363
57369
57371
57444
57484
57528
57559
57612
57671
57757
57826
57835
57867
57872
57885
57906
57912
57968
57979
57990
58045
58080
58084
58098
58103
58109
58137
58146
58148
58279
58300
58301
58314
58342
58391
58392
58410
58444
58451
58458
58460
58487
58530
58532
58546
58547
58583
58584
58586
58626
58634
58636
58642
58732
58736
58755
58919
58955
58985
59002
59021
59028
59055
59066
59085
59119
59129
59138
59143
59167
59177
59182
59183
59190
59196
59197
59200
59225
59244
59260
59279
59291
59301
59307
59312
59313
59434
59435
59439
59461
59478
59515
59538
59539
59543
59601
59616
59651
59672
59696
59702
59706
59718
59723
59725
59726
59733
59756
59793
59810
59833
59853
59856
59886
59889
59922
59930
59967
60000
60018
60040
60041
60044
60061
60062
60064
60065
60068
60086
60209
60210
60213
60223
60228
60242
60246
60263
60287
60288
60290
60295
60324
60346
60430
60490
60494
60502
60703
60754
60755
60763
60772
60774
60790
60796
60834
60843
60849
60852
60909
60943
60975
60977
60978
60991
61068
61098
61099
61111
61257
61264
61271
61283
61326
61327
61356
61959
62066
62076
62137
62572
62834
62902
62969
62981
62982
63163
63385
63386
63451
63455
63471
63518
63608
63609
63610
63616
63619
63628
63629
63713
63714
63720
63828
63926
63927
64140
64170
64183
64193
64249
64251
64267
64282
64296
64306
64351
64481
64487
64512
64514
64515
64525
64529
64534
64562
64569
64590
64592
64601
64608
64609
64633
64644
64645
64648
64655
64659
64673
64677
64679
64683
64691
64705
64707
64722
64746
64760
64765
64768
64771
64775
64785
64817
64820
64822
64998
65009
65028
65056
65095
65099
65124
65143
65202
65339
65545
65551
65615
65627
65700
65713
65740
65743
65753
65777
65859
65862
65885
65905
65970
66016
66034
66035
66040
66051
66338
66422
66430
66599
66600
66612
66659
66690
66719
66731
66740
66750
66753
66767
66801
66809
66810
66855
66861
66896
67013
67040
67047
67078
67120
67138
67181
67203
67213
67254
67341
67346
67413
67453
67478
67528
67590
67641
67720
67751
67753
67799
67829
67835
67876
67880
67896
67921
67930
67936
67937
67941
67951
68005
68011
68037
68047
68060
68061
68062
68082
68083
68114
68116
68215
68239
68262
68276
68280
68285
68287
68309
68328
68335
68362
68379
68392
68397
68410
68430
68512
68516
68525
68551
68564
68569
68571
68580
68588
68589
68615
68631
68635
68636
68653
68664
68665
68677
68716
68739
68778
68800
68803
68834
68902
68910
68920
68935
68941
69010
69013
69113
69120
69127
69130
69167
69277
69296
69311
69338
69402
69446
69458
69499
69506
69539
69624
69641
69682
69683
69686
69698
69711
69714
69721
69723
69726
69740
69745
69751
69753
69783
69876
69879
69898
69905
69914
69915
69920
69934
69950
69961
69968
69993
[ 164 ]
50433
50537
50606
50645
50786
50841
50854
51193
51226
51682
51712
51714
51725
51727
51728
51729
51733
51734
51735
51753
51758
51776
51778
52062
52236
52247
52624
52653
52744
52754
52809
52889
52895
53655
53680
53721
53723
53766
53866
54017
54155
54209
54215
54272
54306
54488
54715
54729
54730
54734
54735
54743
54827
55223
55240
55305
55582
55845
55924
56356
56372
56550
56653
56971
57275
58155
58231
58280
58327
58464
58489
58492
58495
58499
58503
58511
58512
58518
58536
58706
59749
59952
60042
60059
60157
60770
60887
61355
62600
62705
63567
64724
65349
65541
66087
66347
66533
66635
66676
67191
67219
67462
67464
67505
67866
67886
67961
68122
68233
68332
68899
[ 165 ]
50425
58514
58515
58522
58528
58537
58542
[ 166 ]
39259
50427
54740
[ 167 ]
39232
[ 168 ]
3077
[ 169 ]
2765
2774
2799
[ 171 ]
2739
2740
2741
2753
[ 192 ]
61688
61697
61727
[ 193 ]
61456
61519
61533
61540
61573
61586
61635
61645
61647
61650
61664
61673
61678
61684
61686
61694
61700
61701
61703
61707
[ 194 ]
50612
50629
50634
50689
50725
50746
50749
50751
50759
50769
50830
50833
50843
50848
50871
51066
51258
51276
51279
51290
51297
51305
51380
51384
51400
51408
51409
51425
51533
51555
51845
51902
51905
51908
51912
51957
51967
51982
52004
52088
52092
52114
52142
52165
52171
52177
52195
52196
52200
52204
52209
52222
52227
52243
52279
52280
52285
52308
52310
52315
52325
52327
52347
52359
52368
52374
52377
52378
52399
52402
52411
52412
52421
52422
52441
52449
52455
52483
52491
52505
52510
52515
52519
52573
52642
53031
53055
53109
53128
53160
53224
53233
53239
53244
53249
53259
53261
53262
53264
53274
53277
53279
53284
53291
53294
53295
53297
53315
53320
53358
53361
53366
53434
53435
53436
53447
53574
53579
53587
53590
53610
53614
53616
53618
53620
53621
53623
53631
53632
53634
53790
53795
53847
53889
54101
54106
54289
54301
54327
54493
54509
54601
54606
54655
54782
54808
54810
54821
54822
54835
54890
54962
55018
55051
55068
55069
55076
55082
55131
55212
55242
55245
55249
55256
55343
55352
55396
55427
55563
55568
55597
55925
55927
55960
55970
55994
56083
56087
56090
56140
56149
56297
56325
56329
56375
56376
56387
56407
56434
56444
56454
56470
56471
56486
56487
56491
56518
56522
56674
56694
56743
56775
56799
56840
56882
56883
56946
57024
57088
57145
57146
57193
57202
57230
57255
57257
57282
57290
57364
57372
57376
57380
57459
57480
57498
57500
57501
57512
57554
57561
57569
57581
57590
57591
57592
57594
57636
57645
57652
57662
57663
57746
57753
57879
57893
57896
57903
57904
57905
57907
57927
57931
57942
57943
57948
57954
57974
57975
57976
57980
57982
57984
57985
57986
58000
58001
58005
58007
58008
58013
58015
58019
58020
58023
58028
58029
58033
58039
58043
58051
58052
58078
58085
58087
58100
58101
58112
58125
58266
58275
58293
58329
58379
58628
58648
58999
59036
59038
59053
59054
59060
59073
59075
59132
59148
59164
59178
59198
59215
59216
59289
59297
59319
59342
59410
59426
59429
59431
59448
59453
59499
59503
59506
59509
59514
59516
59544
59560
59576
59596
59671
59683
59694
59739
59782
59883
59917
59966
59980
59992
60001
60013
60014
60021
60058
60063
60095
60096
60097
60111
60183
60185
60187
60207
60237
60238
60239
60240
60258
60268
60269
60273
60277
60291
60297
60299
60352
60392
60450
60466
60561
60707
60711
60717
60720
60721
60736
60746
60747
60748
60751
60757
60759
60785
60850
60861
60866
60949
60950
60972
60984
60994
61062
61096
61189
61252
61258
61274
61278
61284
61307
61312
61318
61319
61328
61342
61360
61361
61363
61454
61462
61500
61504
61517
61532
61536
61546
61548
61606
61609
61612
61613
61620
61632
61646
61648
61649
61653
61812
61844
61846
61931
62022
62046
62057
62122
62128
62215
62273
62291
62350
62391
62454
62854
62954
62974
63007
63020
63090
63256
63273
63275
63516
63626
63663
63670
63765
63806
63831
63838
63840
63841
63924
63941
64101
64111
64146
64179
64180
64186
64195
64197
64209
64215
64239
64252
64254
64257
64279
64339
64411
64424
64455
64458
64475
64477
64488
64542
64543
64558
64559
64578
64580
64596
64597
64649
64657
64671
64672
64687
64692
64697
64698
64704
64713
64755
64756
64758
64783
64887
64954
64993
65129
65134
65175
65196
65203
65204
65206
65254
65260
65320
65402
65409
65411
65426
65427
65428
65449
65469
65470
65473
65594
65598
65600
65605
65609
65618
65626
65633
65643
65663
65666
65676
65696
65730
65733
65752
65757
65772
65800
65879
65906
65907
65908
65909
65911
65921
65931
65933
65972
65978
65997
66019
66026
66028
66094
66121
66144
66176
66193
66214
66234
66238
66254
66310
66314
66372
66437
66438
66518
66576
66608
66653
66654
66662
66689
66708
66709
66717
66732
66770
66771
66774
66796
66799
66833
66871
66888
66903
66929
66938
66945
66953
66960
66977
66980
67001
67104
67142
67163
67169
67210
67211
67240
67263
67289
67292
67316
67332
67334
67363
67376
67380
67387
67396
67427
67429
67487
67526
67544
67603
67646
67662
67680
67725
67758
67779
67810
67840
67851
67873
67882
67920
67927
67955
67965
67990
68023
68033
68093
68127
68132
68148
68163
68176
68191
68197
68198
68206
68213
68227
68232
68234
68247
68248
68252
68299
68314
68337
68440
68447
68520
68534
68538
68539
68558
68625
68627
68642
68673
68684
68717
68718
68727
68733
68741
68757
68833
68859
68942
68984
69081
69125
69141
69147
69166
69181
69183
69187
69262
69289
69293
69294
69309
69314
69348
69361
69364
69365
69367
69369
69370
69371
69377
69392
69456
69461
69466
69476
69482
69487
69515
69525
69538
69564
69655
69671
69722
69750
69785
69814
69822
69831
69873
69891
69900
69957
69963
69972
69980
[ 195 ]
50012
50015
50349
50350
50362
50366
50367
50418
50432
50434
50435
50440
50449
50453
50461
50466
50468
50469
50472
50473
50477
50487
50499
50502
50514
50517
50528
50529
50530
50531
50532
50533
50551
50557
50559
50563
50566
50571
50599
50609
50610
50617
50623
50625
50630
50632
50638
50642
50649
50651
50652
50656
50657
50659
50682
50701
50708
50732
50748
50757
50766
50774
50782
50790
50791
50792
50809
50813
50829
50832
50835
50839
50844
50864
50865
50868
50869
50870
50875
50885
51027
51065
51069
51072
51073
51080
51081
51083
51084
51093
51096
51097
51106
51110
51112
51113
51122
51147
51161
51168
51175
51180
51182
51188
51191
51213
51216
51222
51228
51232
51235
51241
51242
51252
51261
51264
51278
51280
51281
51285
51288
51298
51301
51303
51307
51317
51320
51324
51330
51341
51342
51345
51346
51349
51354
51356
51359
51365
51367
51377
51379
51383
51389
51390
51397
51406
51424
51426
51434
51442
51457
51470
51473
51492
51505
51512
51516
51593
51595
51597
51599
51600
51604
51624
51684
51685
51698
51699
51703
51709
51723
51730
51738
51739
51740
51741
51767
51771
51794
51795
51804
51811
51818
51910
51911
51919
51921
51926
51929
51948
51958
51974
51975
51980
51983
51994
52001
52006
52010
52034
52035
52049
52053
52054
52056
52057
52059
52060
52064
52068
52069
52077
52078
52079
52085
52086
52091
52094
52101
52102
52105
52123
52160
52162
52167
52170
52183
52193
52199
52203
52207
52211
52214
52215
52216
52218
52219
52224
52235
52237
52238
52239
52244
52250
52252
52253
52261
52263
52266
52269
52283
52292
52295
52300
52302
52305
52307
52309
52312
52319
52320
52322
52323
52324
52326
52328
52329
52331
52337
52338
52339
52341
52346
52352
52354
52356
52357
52358
52360
52362
52363
52365
52367
52369
52371
52373
52380
52381
52382
52384
52396
52403
52404
52409
52415
52418
52425
52427
52442
52448
52450
52451
52462
52472
52475
52490
52499
52503
52514
52517
52518
52520
52526
52535
52538
52540
52541
52542
52546
52549
52551
52555
52559
52571
52572
52577
52584
52585
52587
52589
52590
52591
52593
52594
52595
52596
52598
52599
52601
52602
52606
52614
52615
52616
52627
52628
52634
52647
52648
52650
52651
52652
52654
52663
52668
52670
52672
52674
52675
52676
52678
52680
52686
52687
52688
52690
52695
52701
52706
52710
52715
52717
52718
52724
52725
52729
52731
52733
52735
52738
52740
52741
52742
52743
52745
52746
52750
52760
52761
52765
52766
52768
52769
52774
52775
52776
52782
52783
52784
52786
52787
52789
52790
52791
52808
52831
52845
52849
52853
52860
52874
52888
52903
52904
53035
53038
53040
53069
53075
53078
53080
53088
53095
53097
53105
53106
53113
53114
53116
53121
53123
53130
53131
53135
53136
53146
53147
53153
53162
53164
53165
53169
53172
53173
53174
53177
53185
53206
53208
53211
53225
53231
53241
53245
53251
53254
53267
53275
53276
53278
53282
53288
53292
53322
53325
53329
53334
53337
53441
53444
53487
53488
53490
53519
53520
53536
53537
53539
53543
53545
53547
53549
53585
53602
53608
53611
53625
53633
53635
53641
53644
53646
53650
53653
53657
53659
53661
53663
53664
53672
53678
53715
53716
53717
53748
53759
53762
53777
53786
53787
53791
53793
53794
53800
53802
53804
53806
53810
53814
53817
53820
53837
53840
53857
53863
53865
53869
53872
53876
53877
53881
53886
53902
53906
53913
53917
53919
53933
53934
53955
53967
53984
53995
54018
54020
54022
54024
54038
54046
54059
54064
54073
54087
54096
54107
54116
54130
54151
54153
54154
54162
54170
54171
54186
54189
54193
54196
54208
54210
54211
54212
54213
54216
54219
54239
54241
54253
54254
54257
54291
54292
54293
54312
54348
54359
54363
54380
54414
54419
54459
54462
54463
54464
54468
54477
54483
54486
54492
54495
54497
54508
54542
54547
54586
54588
54598
54616
54617
54684
54689
54711
54750
54753
54768
54774
54775
54781
54783
54786
54788
54790
54791
54793
54794
54798
54818
54820
54841
54857
54884
54917
54947
54964
54965
54967
54987
55003
55016
55045
55046
55056
55057
55063
55078
55080
55091
55092
55097
55098
55100
55102
55108
55112
55116
55121
55124
55130
55134
55141
55146
55168
55173
55178
55182
55187
55191
55216
55235
55248
55259
55260
55285
55286
55304
55311
55313
55315
55349
55350
55351
55358
55371
55385
55390
55395
55413
55432
55533
55534
55542
55545
55552
55556
55558
55561
55564
55565
55575
55576
55583
55587
55589
55593
55621
55718
55723
55736
55738
55746
55761
55769
55771
55778
55807
55818
55828
55843
55861
55872
55894
55898
55899
55902
55916
55920
55926
55929
55947
55951
55959
55962
55964
55975
55980
55987
55991
56054
56081
56085
56095
56101
56102
56103
56135
56288
56289
56321
56322
56323
56334
56336
56339
56343
56347
56350
56353
56360
56378
56392
56393
56395
56398
56405
56410
56418
56420
56423
56428
56429
56435
56439
56441
56442
56446
56447
56456
56458
56461
56462
56464
56468
56476
56480
56481
56484
56488
56489
56490
56493
56501
56504
56509
56510
56512
56514
56517
56524
56527
56530
56532
56534
56535
56537
56538
56544
56552
56553
56554
56559
56565
56575
56579
56581
56582
56585
56586
56589
56592
56593
56599
56600
56602
56606
56614
56617
56620
56621
56628
56639
56640
56645
56652
56661
56667
56669
56672
56678
56681
56683
56685
56690
56692
56695
56698
56700
56706
56708
56710
56720
56778
56780
56786
56787
56790
56802
56820
56822
56826
56836
56837
56842
56864
56875
56880
56881
56885
56890
56893
56896
56913
56923
56931
56956
56962
56966
56975
56977
56979
56980
56981
56982
56984
56989
56992
56993
57008
57018
57020
57023
57043
57046
57047
57050
57051
57052
57068
57075
57083
57085
57102
57103
57104
57106
57113
57115
57119
57120
57125
57130
57135
57140
57141
57143
57144
57149
57151
57153
57157
57167
57175
57180
57182
57184
57205
57212
57218
57222
57224
57229
57234
57237
57240
57248
57263
57266
57272
57277
57283
57288
57305
57308
57312
57317
57319
57322
57326
57329
57335
57337
57338
57339
57360
57375
57385
57388
57390
57393
57396
57398
57399
57403
57413
57429
57430
57441
57449
57453
57455
57471
57473
57481
57482
57492
57503
57508
57511
57514
57521
57531
57532
57542
57543
57567
57571
57574
57603
57604
57608
57611
57613
57620
57658
57670
57673
57679
57760
57768
57782
57791
57796
57810
57820
57821
57825
57834
57837
57838
57839
57845
57849
57850
57851
57852
57854
57858
57859
57861
57862
57865
57866
57874
57875
57876
57877
57880
57886
57887
57889
57897
57899
57900
57908
57918
57920
57929
57940
57949
57950
57952
57953
57964
57973
57992
57993
57994
57998
58003
58009
58010
58017
58024
58035
58038
58041
58046
58055
58056
58062
58066
58072
58073
58083
58086
58089
58091
58099
58106
58114
58118
58119
58124
58136
58163
58165
58170
58172
58182
58189
58190
58191
58194
58208
58210
58222
58224
58229
58233
58234
58239
58246
58252
58258
58260
58264
58267
58269
58278
58281
58282
58291
58294
58297
58299
58303
58305
58309
58311
58312
58315
58320
58321
58322
58324
58330
58336
58353
58368
58373
58374
58381
58388
58393
58396
58400
58401
58406
58407
58418
58419
58421
58426
58428
58429
58433
58436
58437
58439
58440
58443
58461
58462
58463
58505
58534
58544
58554
58557
58558
58559
58571
58574
58577
58580
58590
58592
58594
58615
58624
58625
58631
58637
58638
58640
58665
58667
58680
58686
58688
58694
58704
58725
58727
58735
58741
58743
58745
58747
58751
58752
58754
58772
58812
58822
58839
58845
58847
58849
58854
58857
58881
58886
58893
58908
58921
58931
58932
58938
58939
58941
58954
58958
58983
58989
58991
58994
59001
59005
59009
59010
59011
59019
59022
59024
59025
59026
59029
59030
59031
59032
59033
59042
59049
59058
59062
59069
59070
59071
59076
59080
59083
59089
59090
59100
59105
59107
59111
59115
59117
59125
59126
59127
59131
59133
59134
59139
59145
59146
59149
59151
59156
59157
59158
59162
59166
59170
59171
59174
59175
59176
59180
59184
59185
59187
59189
59191
59192
59194
59195
59201
59202
59203
59209
59211
59217
59218
59219
59222
59223
59226
59227
59233
59235
59237
59240
59242
59251
59252
59267
59269
59270
59271
59275
59281
59283
59290
59294
59295
59300
59304
59316
59320
59322
59323
59326
59328
59337
59346
59352
59371
59380
59388
59392
59394
59398
59414
59444
59449
59452
59457
59473
59475
59476
59491
59493
59500
59504
59507
59513
59520
59523
59524
59525
59527
59542
59549
59552
59556
59561
59563
59564
59569
59577
59584
59593
59599
59603
59607
59615
59619
59620
59624
59635
59643
59649
59653
59655
59659
59668
59673
59674
59675
59677
59678
59679
59684
59685
59687
59688
59689
59693
59701
59703
59708
59709
59710
59711
59715
59720
59722
59724
59727
59728
59732
59748
59750
59754
59755
59762
59766
59780
59783
59786
59788
59795
59796
59801
59805
59806
59815
59823
59824
59827
59831
59838
59839
59842
59868
59871
59884
59890
59892
59894
59895
59898
59899
59900
59906
59907
59908
59910
59913
59916
59923
59925
59926
59935
59936
59938
59942
59943
59944
59946
59951
59953
59954
59955
59956
59962
59969
59974
59975
59979
59982
59985
59991
59994
59997
60005
60010
60016
60019
60024
60028
60033
60037
60039
60043
60049
60051
60052
60054
60057
60066
60067
60069
60072
60073
60074
60075
60077
60080
60081
60089
60093
60099
60106
60110
60115
60118
60122
60123
60124
60126
60128
60129
60153
60154
60156
60160
60169
60172
60176
60179
60180
60191
60192
60199
60200
60202
60203
60211
60218
60221
60225
60230
60231
60241
60244
60248
60253
60257
60260
60271
60272
60279
60281
60298
60302
60314
60321
60322
60323
60338
60355
60361
60382
60408
60413
60415
60419
60429
60465
60474
60485
60488
60489
60495
60537
60550
60557
60666
60688
60696
60702
60723
60724
60731
60742
60744
60745
60761
60762
60765
60766
60767
60769
60771
60788
60789
60798
60799
60800
60808
60811
60833
60835
60839
60841
60844
60853
60880
60888
60936
60939
60951
60955
60979
60988
61025
61029
61041
61056
61058
61065
61080
61086
61092
61187
61204
61259
61288
61311
61313
61339
61358
61359
61364
61721
61976
61977
62011
62074
62114
62118
62121
62126
62133
62136
62149
62191
62211
62237
62333
62342
62343
62347
62357
62371
62381
62396
62443
62462
62470
62486
62487
62495
62496
62520
62535
62539
62557
62569
62575
62581
62588
62590
62597
62601
62605
62614
62631
62670
62716
62718
62719
62733
62738
62766
62778
62789
62791
62811
62822
62826
62827
62847
62856
62874
62879
62881
62883
62948
62968
62970
62975
62988
62992
63013
63057
63072
63082
63104
63111
63121
63122
63148
63151
63167
63182
63185
63217
63225
63259
63269
63280
63282
63283
63298
63308
63353
63361
63366
63371
63373
63408
63434
63456
63464
63469
63472
63487
63505
63524
63533
63549
63561
63564
63596
63606
63618
63661
63665
63666
63667
63668
63669
63671
63672
63674
63675
63676
63691
63702
63703
63708
63710
63712
63715
63732
63734
63745
63771
63774
63784
63799
63823
63834
63844
63854
63867
63925
63945
63950
63969
64001
64078
64099
64113
64115
64120
64122
64125
64129
64130
64131
64138
64142
64148
64152
64153
64157
64162
64163
64169
64171
64174
64177
64191
64192
64196
64198
64200
64201
64202
64206
64207
64211
64212
64218
64219
64222
64225
64231
64233
64236
64245
64246
64248
64260
64262
64263
64266
64274
64281
64284
64285
64286
64288
64292
64295
64297
64299
64301
64307
64319
64321
64324
64325
64326
64329
64331
64332
64336
64345
64349
64352
64354
64363
64378
64385
64393
64395
64397
64399
64401
64402
64408
64413
64414
64415
64423
64429
64437
64445
64448
64468
64478
64486
64493
64500
64505
64508
64509
64511
64527
64528
64533
64538
64544
64549
64552
64553
64556
64557
64563
64564
64565
64567
64568
64571
64573
64575
64576
64581
64582
64583
64584
64586
64591
64594
64599
64600
64607
64614
64616
64621
64625
64632
64634
64636
64640
64650
64658
64661
64663
64667
64669
64682
64684
64685
64686
64689
64694
64695
64696
64700
64702
64703
64710
64715
64717
64718
64721
64728
64731
64736
64739
64740
64742
64744
64747
64751
64754
64770
64776
64777
64778
64779
64781
64784
64800
64802
64811
64815
64818
64819
64821
64826
64827
64829
64836
64841
64906
64939
64940
64944
64952
64955
64958
64981
64988
65024
65037
65039
65043
65072
65075
65085
65097
65110
65111
65115
65122
65123
65132
65144
65148
65170
65172
65178
65211
65212
65235
65258
65266
65267
65288
65290
65295
65303
65304
65310
65313
65316
65329
65335
65341
65342
65345
65346
65351
65353
65358
65368
65372
65374
65380
65385
65389
65393
65398
65400
65401
65420
65422
65423
65424
65430
65432
65440
65444
65458
65459
65460
65461
65472
65475
65509
65511
65536
65544
65546
65548
65549
65554
65558
65562
65567
65581
65583
65584
65593
65597
65606
65617
65629
65630
65632
65649
65651
65652
65685
65694
65701
65703
65715
65719
65738
65739
65742
65748
65749
65751
65754
65758
65763
65767
65776
65778
65794
65795
65810
65828
65836
65841
65843
65844
65845
65852
65858
65861
65863
65865
65880
65883
65884
65894
65896
65897
65915
65922
65927
65929
65973
65992
65993
65994
65995
66007
66008
66015
66022
66023
66025
66031
66033
66036
66038
66043
66061
66117
66125
66131
66132
66133
66146
66177
66178
66179
66184
66186
66191
66192
66195
66199
66201
66213
66216
66218
66219
66221
66222
66225
66228
66241
66246
66247
66255
66258
66259
66274
66278
66280
66287
66295
66302
66315
66325
66332
66379
66387
66389
66393
66397
66405
66407
66415
66419
66421
66426
66440
66473
66474
66484
66491
66493
66495
66500
66504
66512
66520
66526
66535
66539
66552
66556
66557
66561
66567
66569
66574
66578
66589
66605
66621
66622
66627
66637
66640
66644
66647
66667
66668
66674
66684
66688
66693
66696
66702
66715
66736
66739
66742
66744
66745
66747
66749
66751
66761
66764
66772
66777
66779
66784
66785
66787
66794
66802
66808
66822
66824
66843
66844
66848
66850
66858
66859
66868
66898
66899
66904
66906
66925
66930
66937
66946
66963
66964
66970
66982
66990
66991
66992
67022
67025
67026
67027
67031
67038
67044
67050
67051
67059
67064
67068
67075
67082
67113
67130
67131
67135
67139
67143
67145
67147
67150
67152
67155
67156
67161
67165
67179
67182
67184
67185
67187
67188
67189
67198
67200
67201
67202
67205
67226
67245
67247
67266
67272
67273
67274
67276
67277
67278
67279
67280
67283
67284
67286
67288
67291
67295
67297
67302
67303
67307
67309
67321
67323
67330
67331
67336
67337
67347
67348
67358
67362
67375
67377
67378
67383
67392
67406
67417
67418
67420
67424
67428
67431
67448
67450
67454
67459
67460
67467
67471
67474
67481
67483
67488
67495
67507
67510
67513
67533
67537
67547
67548
67555
67559
67561
67569
67572
67575
67584
67586
67602
67604
67605
67609
67616
67627
67629
67657
67661
67677
67685
67703
67706
67709
67714
67727
67731
67732
67740
67741
67744
67745
67755
67759
67760
67761
67763
67766
67772
67801
67827
67834
67852
67854
67857
67859
67868
67877
67879
67883
67887
67888
67890
67891
67892
67893
67894
67900
67903
67904
67905
67910
67911
67914
67915
67919
67925
67926
67939
67942
67943
67944
67953
67968
67978
67986
67997
68003
68004
68012
68024
68026
68027
68040
68046
68050
68051
68053
68054
68066
68068
68072
68074
68077
68078
68079
68091
68095
68102
68104
68107
68117
68125
68128
68133
68134
68146
68147
68152
68153
68157
68172
68174
68179
68192
68195
68207
68210
68219
68235
68240
68243
68244
68245
68246
68250
68251
68255
68265
68279
68284
68290
68295
68300
68304
68310
68323
68330
68336
68338
68340
68349
68350
68353
68361
68368
68374
68378
68381
68384
68387
68394
68396
68402
68403
68404
68405
68407
68408
68412
68413
68417
68435
68439
68460
68473
68474
68477
68479
68481
68486
68488
68491
68493
68494
68495
68500
68503
68506
68508
68511
68514
68515
68518
68524
68533
68542
68544
68545
68547
68555
68556
68557
68560
68563
68565
68568
68579
68581
68583
68584
68587
68596
68611
68616
68617
68619
68624
68633
68641
68650
68651
68654
68656
68658
68662
68663
68666
68669
68670
68682
68686
68690
68691
68695
68697
68699
68700
68707
68708
68711
68712
68714
68726
68732
68735
68736
68742
68770
68772
68773
68776
68784
68788
68790
68809
68814
68816
68818
68822
68832
68838
68850
68866
68869
68875
68898
68904
68911
68917
68922
68925
68930
68933
68944
68949
68961
68983
68989
69002
69012
69016
69022
69024
69027
69036
69048
69054
69055
69062
69067
69089
69092
69095
69101
69102
69103
69105
69111
69116
69119
69128
69132
69135
69145
69148
69150
69153
69157
69189
69193
69230
69242
69250
69257
69261
69267
69271
69274
69276
69285
69287
69288
69292
69295
69303
69308
69313
69318
69324
69328
69333
69336
69343
69349
69350
69362
69363
69368
69372
69374
69378
69384
69388
69390
69391
69393
69399
69405
69406
69418
69430
69431
69439
69440
69444
69445
69448
69457
69473
69477
69481
69483
69484
69486
69489
69490
69491
69494
69502
69503
69504
69505
69507
69508
69512
69523
69553
69555
69556
69561
69562
69573
69581
69582
69586
69594
69632
69636
69637
69638
69662
69665
69670
69673
69674
69675
69676
69677
69678
69679
69685
69687
69688
69690
69693
69695
69696
69699
69703
69706
69708
69713
69716
69718
69719
69720
69724
69727
69728
69729
69730
69731
69736
69738
69742
69744
69747
69752
69754
69755
69757
69762
69764
69773
69774
69775
69780
69784
69786
69787
69788
69791
69794
69798
69813
69821
69828
69833
69840
69842
69844
69846
69847
69863
69866
69870
69871
69874
69878
69882
69883
69886
69892
69899
69907
69908
69909
69911
69912
69916
69919
69922
69923
69930
69944
69946
69948
69952
69962
69965
69969
69970
69975
69976
69982
69984
69995
69998
[ 196 ]
50419
50422
50428
50508
50513
50541
50587
50589
50595
50603
50614
50621
50631
50643
50742
50779
50838
51104
51199
51231
51259
51260
51328
51368
51372
51486
51515
51621
51687
51704
51715
51724
51768
51800
51810
51936
51976
52002
52051
52058
52067
52071
52075
52143
52246
52260
52458
52618
52640
52661
52702
52707
52708
52712
52716
52730
52751
52755
52814
52833
52861
52873
52875
52906
52911
52918
52919
52921
52924
52928
52930
52934
53161
53163
53252
53501
53546
53560
53677
53970
53979
53996
54040
54099
54100
54191
54199
54313
54344
54362
54427
54428
54433
54438
54440
54446
54449
54472
54481
54484
54612
54722
54733
54778
55047
55162
55188
55222
55225
55261
55588
55794
55840
55896
55918
55992
56341
56361
56370
56406
56413
56570
56647
56648
56712
56726
56727
56737
56738
56888
56901
56914
56915
56921
56925
56940
56942
56944
56970
57015
57019
57134
57150
57252
57273
57610
57811
57840
57914
58115
58186
58225
58237
58371
58375
58427
58472
58475
58476
58478
58484
58485
58486
58488
58490
58491
58496
58498
58500
58521
58523
58531
58533
58543
58560
58597
58661
58705
58716
58765
58907
58914
58923
58964
58995
59017
59027
59108
59112
59120
59142
59173
59206
59261
59262
59282
59324
59332
59566
59623
59705
59721
59729
59769
59832
59836
59843
59850
59869
59874
59960
59961
59968
59976
60032
60038
60079
60116
60125
60136
60139
60181
60282
60283
60503
60505
60775
60840
62116
62877
63203
63482
63572
63612
63698
64134
64167
64168
64187
64293
64392
64502
64537
64539
64545
64551
64750
64953
65133
65226
65280
65947
65951
66013
66279
66319
66322
66375
66726
66920
66996
67048
67096
67114
67164
67199
67352
67556
67749
67750
67969
68035
68136
68258
68260
68264
68281
68286
68366
68451
68779
68932
68951
68970
69032
69155
69748
69779
69937
[ 197 ]
35267
35357
39237
52249
52752
54741
58465
58471
58474
58481
58513
58526
58527
66359
[ 198 ]
2913
35403
39228
39260
39270
50424
52942
54738
54739
[ 199 ]
2827
2852
2884
2893
2895
2904
34919
39219
39220
39225
39268
39269
[ 200 ]
2794
2815
2985
39223
39247
[ 201 ]
2760
2763
2764
2772
2775
2777
2791
2795
2797
2800
2802
2808
2810
2840
39111
39217
[ 202 ]
2746
2754
2770
2776
2780
2785
2787
[ 203 ]
2734
2735
2747
2752
[ 204 ]
2738
[ 224 ]
61667
[ 225 ]
53302
61509
61516
61522
61531
61539
61545
61565
61593
61599
61634
61675
61698
61699
61702
61706
61737
61741
61749
61809
[ 226 ]
50354
50360
50380
50387
50400
50647
50648
50726
50758
50770
50831
50851
50880
51029
51054
51166
51272
51310
51394
51396
51428
51429
51438
51439
51445
51471
51573
51596
51611
51801
51860
51906
51907
51914
51918
51923
51963
51966
51991
51999
52005
52016
52063
52093
52099
52112
52119
52125
52141
52147
52181
52184
52185
52186
52187
52191
52198
52202
52220
52221
52223
52268
52272
52276
52277
52278
52282
52294
52298
52342
52345
52408
52424
52426
52433
52452
52454
52477
52478
52522
52528
52529
52530
52533
52545
52554
52582
52811
52892
53032
53056
53057
53119
53212
53219
53223
53228
53229
53236
53243
53260
53265
53266
53268
53269
53270
53271
53273
53290
53296
53308
53311
53316
53333
53335
53340
53353
53354
53355
53356
53357
53359
53362
53369
53374
53383
53437
53439
53440
53452
53465
53473
53495
53557
53558
53569
53622
53628
53660
53779
53780
53809
53898
53899
53940
53947
53966
54070
54133
54143
54145
54229
54250
54256
54279
54490
54592
54619
54811
54819
54840
54843
54898
54903
54950
55006
55007
55014
55050
55054
55055
55101
55114
55207
55215
55219
55220
55228
55231
55265
55283
55290
55299
55307
55365
55373
55374
55541
55557
55569
55717
55886
55908
55912
55913
55914
55931
55940
55945
55965
55968
55983
56050
56086
56105
56130
56150
56281
56287
56304
56313
56327
56331
56359
56364
56402
56433
56437
56453
56455
56502
56529
56541
56626
56634
56688
56746
56761
56762
56774
56779
56801
56815
56818
56824
56831
56855
56856
56858
56859
56860
56994
57004
57006
57027
57086
57090
57097
57098
57108
57109
57110
57133
57170
57206
57323
57374
57382
57383
57384
57457
57493
57494
57505
57510
57517
57520
57522
57525
57529
57530
57533
57540
57553
57556
57560
57563
57565
57566
57589
57598
57599
57601
57625
57632
57637
57646
57655
57661
57676
57678
57755
57756
57758
57761
57763
57778
57817
57827
57832
57881
57882
57890
57892
57895
57902
57933
57934
57935
57936
57938
57955
57959
57963
57989
57995
57997
57999
58006
58012
58016
58022
58026
58034
58040
58042
58050
58111
58202
58261
58265
58268
58286
58288
58290
58295
58298
58328
58662
58713
58883
58901
58935
59000
59106
59210
59220
59224
59288
59383
59387
59433
59437
59451
59456
59505
59508
59510
59511
59512
59518
59547
59681
59697
59698
59914
60002
60008
60009
60011
60027
60088
60117
60198
60204
60222
60276
60294
60304
60317
60320
60358
60395
60396
60409
60470
60554
60559
60652
60664
60691
60701
60708
60709
60713
60716
60730
60734
60737
60738
60739
60743
60756
60758
60760
60764
60781
60783
60801
60860
60863
60865
60868
60928
60933
60971
60981
60996
60998
60999
61001
61030
61033
61107
61108
61140
61152
61166
61251
61253
61275
61293
61304
61306
61315
61316
61320
61321
61324
61333
61338
61367
61397
61450
61460
61476
61505
61511
61512
61513
61514
61515
61521
61529
61535
61544
61547
61550
61553
61554
61556
61557
61560
61562
61566
61578
61580
61582
61588
61589
61592
61595
61600
61607
61623
61630
61631
61633
61651
61781
61811
61823
61829
61830
61832
61842
61852
61924
61932
61956
62000
62013
62016
62029
62031
62059
62075
62168
62254
62272
62275
62301
62305
62315
62328
62345
62382
62387
62392
62394
62619
62626
62702
62781
62786
62788
62795
62836
62851
62898
62900
62973
62979
62985
62987
63006
63008
63024
63054
63058
63061
63064
63125
63161
63329
63363
63375
63432
63517
63523
63527
63551
63581
63599
63681
63736
63762
63766
63769
63804
63812
63856
63862
63919
63923
63928
63939
63948
63970
63994
64043
64055
64087
64103
64116
64150
64173
64175
64182
64221
64227
64259
64270
64276
64289
64294
64304
64328
64443
64459
64461
64472
64480
64482
64498
64588
64622
64630
64639
64666
64670
64681
64690
64813
64832
64862
64885
64905
64937
64938
64950
64957
64975
64992
65008
65019
65031
65048
65057
65121
65156
65158
65183
65186
65205
65251
65252
65283
65287
65291
65305
65314
65338
65352
65370
65375
65382
65410
65425
65437
65439
65445
65447
65455
65456
65481
65487
65504
65510
65517
65553
65574
65580
65586
65587
65588
65591
65602
65603
65604
65616
65620
65653
65669
65670
65671
65693
65712
65729
65732
65735
65737
65750
65770
65780
65788
65797
65802
65826
65846
65851
65877
65904
65918
65940
65959
66004
66029
66032
66044
66138
66203
66217
66252
66289
66305
66311
66327
66376
66381
66417
66428
66457
66458
66464
66492
66544
66611
66655
66714
66716
66718
66748
66780
66786
66790
66828
66832
66834
66847
66862
66869
66870
66878
66894
66895
66911
66940
66941
66949
66956
66978
66979
66985
67029
67034
67042
67062
67065
67089
67105
67108
67127
67209
67215
67228
67232
67234
67249
67252
67270
67300
67312
67315
67340
67342
67345
67381
67384
67385
67386
67391
67409
67421
67484
67491
67494
67497
67508
67514
67515
67543
67589
67653
67655
67675
67682
67723
67733
67739
67769
67775
67778
67850
67874
67885
67895
67898
67924
67946
67950
67957
67988
67998
68014
68015
68143
68158
68159
68170
68178
68190
68204
68231
68249
68253
68303
68305
68313
68324
68339
68372
68373
68401
68450
68478
68498
68501
68504
68509
68536
68540
68562
68578
68601
68618
68621
68626
68655
68657
68671
68675
68680
68738
68752
68753
68844
68860
68871
68886
68919
68936
68938
69015
69094
69139
69142
69143
69152
69164
69168
69175
69184
69190
69223
69264
69265
69268
69279
69282
69298
69299
69307
69312
69316
69317
69323
69325
69326
69339
69344
69346
69347
69366
69373
69375
69376
69386
69394
69400
69426
69452
69454
69464
69467
69474
69479
69480
69498
69516
69520
69522
69526
69527
69536
69546
69548
69550
69554
69577
69588
69589
69642
69643
69652
69656
69661
69663
69667
69819
69853
69855
69865
69872
69877
69881
69884
69893
69928
69956
69971
69977
69985
69990
[ 227 ]
50001
50003
50119
50123
50234
50238
50244
50353
50357
50358
50361
50377
50388
50398
50406
50408
50409
50414
50415
50417
50429
50431
50439
50444
50445
50446
50451
50455
50457
50459
50474
50488
50490
50503
50504
50515
50516
50519
50521
50525
50526
50534
50536
50540
50554
50555
50561
50564
50569
50572
50579
50590
50597
50598
50600
50608
50618
50620
50626
50628
50635
50661
50662
50663
50664
50665
50666
50670
50674
50709
50713
50721
50731
50733
50767
50768
50772
50773
50775
50781
50783
50784
50785
50787
50793
50794
50800
50802
50804
50812
50815
50828
50836
50845
50866
50894
50908
50919
50920
50925
50927
50928
50935
50955
50976
50977
51033
51035
51051
51059
51063
51067
51074
51086
51090
51091
51095
51102
51103
51105
51111
51114
51121
51124
51126
51133
51140
51142
51167
51170
51174
51178
51184
51185
51187
51190
51195
51196
51202
51203
51209
51211
51214
51229
51230
51234
51236
51238
51244
51247
51248
51254
51263
51268
51269
51271
51284
51294
51308
51312
51314
51318
51319
51323
51329
51335
51336
51337
51339
51352
51355
51358
51362
51370
51374
51375
51376
51378
51385
51395
51401
51417
51421
51422
51447
51456
51461
51462
51463
51481
51484
51487
51490
51497
51510
51511
51531
51532
51577
51579
51589
51602
51603
51607
51651
51654
51655
51674
51690
51692
51693
51695
51696
51744
51745
51750
51751
51756
51765
51766
51790
51793
51807
51814
51816
51820
51821
51831
51832
51835
51836
51838
51839
51840
51842
51850
51858
51893
51909
51915
51916
51938
51945
51956
51973
51977
51978
51979
51981
52008
52009
52014
52015
52019
52021
52023
52033
52036
52040
52050
52052
52066
52072
52076
52082
52090
52097
52098
52118
52120
52121
52131
52132
52134
52137
52144
52151
52156
52161
52169
52172
52182
52188
52210
52212
52213
52225
52228
52229
52230
52232
52233
52240
52245
52264
52271
52275
52286
52289
52291
52301
52304
52314
52316
52317
52348
52370
52388
52393
52394
52431
52435
52436
52443
52444
52445
52459
52473
52476
52480
52486
52488
52495
52497
52498
52501
52507
52509
52511
52513
52516
52525
52527
52531
52534
52536
52539
52543
52544
52547
52548
52556
52557
52567
52568
52574
52575
52576
52588
52592
52604
52607
52609
52613
52620
52625
52635
52638
52645
52646
52655
52664
52669
52673
52679
52684
52692
52693
52698
52699
52709
52711
52713
52719
52720
52722
52723
52726
52734
52736
52737
52739
52749
52759
52777
52781
52785
52792
52797
52800
52801
52805
52806
52810
52820
52821
52837
52851
52855
52856
52866
52867
52868
52882
52893
52894
52898
52900
52907
52915
52920
52927
52931
52982
52984
53014
53020
53028
53030
53033
53034
53036
53039
53043
53044
53045
53049
53051
53052
53053
53062
53063
53066
53070
53071
53076
53083
53086
53089
53092
53093
53099
53101
53102
53107
53110
53117
53125
53132
53133
53137
53140
53141
53143
53144
53145
53149
53150
53154
53157
53166
53170
53183
53187
53194
53202
53205
53209
53210
53218
53220
53226
53230
53234
53240
53253
53256
53272
53285
53286
53289
53293
53298
53303
53309
53314
53331
53339
53346
53347
53348
53360
53384
53438
53442
53446
53453
53455
53458
53460
53462
53474
53475
53476
53482
53484
53491
53492
53496
53498
53499
53500
53503
53511
53512
53518
53524
53525
53533
53535
53540
53553
53555
53556
53561
53562
53568
53572
53575
53576
53577
53624
53630
53637
53669
53674
53682
53689
53693
53720
53724
53726
53732
53752
53754
53756
53761
53764
53765
53774
53775
53778
53783
53785
53788
53796
53818
53821
53822
53827
53831
53836
53843
53846
53848
53850
53853
53855
53859
53867
53870
53871
53873
53887
53890
53900
53904
53905
53910
53911
53914
53918
53922
53927
53928
53929
53930
53937
53938
53939
53946
53958
53963
53964
53969
53972
53974
53977
53978
53980
53982
53988
53994
53997
54001
54008
54009
54011
54013
54019
54021
54027
54029
54031
54032
54036
54041
54048
54050
54051
54052
54055
54056
54057
54058
54060
54069
54075
54076
54078
54079
54080
54084
54085
54090
54095
54098
54103
54104
54105
54118
54123
54128
54132
54137
54138
54139
54146
54149
54168
54169
54176
54180
54185
54188
54195
54198
54200
54202
54217
54218
54225
54228
54230
54232
54233
54237
54243
54245
54251
54264
54270
54275
54276
54280
54282
54286
54300
54330
54333
54334
54336
54342
54345
54347
54349
54351
54352
54353
54354
54355
54356
54358
54361
54364
54370
54374
54379
54381
54384
54387
54389
54390
54392
54394
54395
54396
54401
54406
54407
54409
54420
54426
54435
54436
54442
54444
54448
54450
54451
54453
54458
54469
54482
54485
54489
54496
54499
54510
54531
54535
54536
54538
54539
54540
54544
54585
54597
54603
54607
54614
54620
54625
54641
54647
54657
54658
54660
54679
54690
54696
54704
54707
54709
54712
54751
54752
54755
54759
54761
54770
54771
54772
54776
54779
54780
54784
54785
54795
54799
54800
54801
54812
54815
54817
54824
54844
54860
54862
54863
54872
54873
54874
54877
54879
54880
54882
54891
54892
54894
54895
54900
54901
54912
54916
54918
54921
54922
54929
54930
54943
54951
54952
54956
54960
54963
54968
54975
54976
54977
54978
54981
54982
54983
54984
54988
54990
54992
54996
54997
55000
55005
55010
55011
55012
55020
55026
55029
55042
55052
55053
55058
55060
55062
55064
55066
55067
55071
55073
55079
55081
55085
55086
55088
55090
55099
55103
55105
55107
55120
55123
55128
55135
55136
55137
55140
55143
55148
55150
55156
55161
55174
55181
55183
55184
55186
55189
55194
55195
55201
55203
55204
55209
55210
55213
55214
55217
55226
55230
55232
55233
55239
55241
55253
55255
55257
55262
55264
55284
55287
55291
55293
55300
55302
55303
55319
55345
55346
55354
55355
55360
55364
55370
55375
55377
55384
55387
55389
55408
55412
55422
55428
55435
55436
55437
55526
55538
55539
55550
55551
55560
55570
55572
55573
55585
55590
55595
55599
55603
55605
55609
55614
55615
55619
55622
55624
55716
55722
55725
55730
55751
55758
55760
55767
55775
55779
55783
55789
55793
55795
55798
55799
55801
55802
55805
55812
55827
55835
55856
55859
55860
55868
55871
55874
55878
55879
55881
55883
55890
55900
55903
55944
55946
55948
55949
55953
55955
55958
55963
55967
55971
55972
55976
55979
55986
55988
55990
55993
55995
56040
56053
56056
56058
56072
56074
56084
56088
56093
56096
56097
56098
56100
56139
56141
56142
56146
56151
56286
56295
56305
56311
56312
56315
56318
56319
56330
56335
56338
56345
56346
56354
56355
56358
56365
56368
56369
56373
56380
56381
56382
56391
56396
56397
56400
56403
56404
56412
56414
56416
56417
56421
56424
56425
56426
56427
56432
56436
56440
56443
56445
56449
56450
56451
56452
56457
56460
56465
56469
56473
56475
56477
56485
56496
56497
56498
56499
56500
56505
56533
56536
56543
56545
56546
56557
56571
56572
56577
56580
56583
56594
56598
56601
56609
56615
56624
56629
56635
56638
56643
56654
56658
56662
56663
56668
56671
56673
56675
56677
56682
56689
56691
56696
56697
56699
56709
56711
56713
56714
56745
56754
56756
56757
56758
56766
56767
56768
56781
56783
56785
56789
56791
56794
56796
56800
56807
56811
56812
56816
56819
56821
56823
56827
56828
56829
56838
56841
56843
56845
56850
56854
56857
56863
56865
56866
56868
56870
56872
56874
56879
56884
56887
56889
56891
56894
56900
56907
56908
56911
56917
56927
56930
56933
56937
56952
56961
56965
56967
56968
56976
56983
56985
56988
56991
56995
56997
56998
57002
57007
57009
57010
57014
57017
57022
57025
57028
57034
57035
57036
57037
57042
57045
57054
57055
57060
57061
57063
57065
57067
57073
57076
57078
57082
57089
57092
57107
57111
57112
57117
57118
57121
57123
57131
57132
57136
57137
57138
57142
57147
57148
57154
57155
57158
57162
57164
57165
57168
57176
57179
57185
57186
57189
57197
57200
57201
57203
57204
57210
57211
57214
57215
57216
57225
57226
57227
57231
57236
57242
57243
57245
57251
57253
57254
57256
57264
57265
57279
57281
57284
57292
57294
57301
57302
57307
57309
57313
57315
57316
57324
57325
57330
57333
57334
57340
57347
57352
57353
57362
57365
57379
57386
57387
57389
57392
57405
57406
57407
57409
57410
57412
57416
57417
57420
57422
57423
57432
57436
57438
57442
57443
57445
57448
57454
57456
57458
57462
57465
57469
57472
57475
57477
57486
57488
57495
57502
57506
57519
57526
57539
57550
57558
57570
57572
57576
57577
57580
57588
57595
57597
57602
57606
57607
57616
57617
57621
57639
57650
57681
57688
57695
57696
57705
57706
57714
57715
57718
57720
57721
57722
57724
57725
57734
57749
57754
57766
57769
57770
57772
57780
57785
57786
57789
57790
57802
57804
57805
57812
57816
57823
57828
57829
57830
57841
57843
57844
57846
57848
57856
57857
57860
57863
57864
57868
57870
57873
57883
57894
57909
57911
57915
57917
57922
57923
57924
57925
57951
57956
57957
57958
57966
57967
57969
57970
57971
57981
57987
57991
58014
58036
58047
58049
58053
58059
58060
58063
58064
58068
58069
58071
58074
58075
58076
58077
58079
58082
58088
58093
58094
58095
58096
58097
58102
58104
58107
58108
58110
58113
58120
58121
58123
58126
58128
58129
58130
58131
58138
58141
58142
58143
58145
58147
58150
58153
58154
58156
58162
58168
58169
58176
58180
58183
58184
58187
58192
58195
58197
58198
58201
58203
58207
58209
58221
58226
58228
58230
58232
58240
58241
58244
58248
58253
58254
58255
58257
58259
58263
58270
58272
58273
58277
58283
58287
58289
58292
58296
58304
58306
58307
58308
58310
58313
58317
58325
58337
58338
58339
58344
58345
58351
58352
58355
58356
58365
58369
58376
58378
58382
58383
58384
58385
58390
58394
58395
58397
58398
58402
58408
58409
58416
58422
58423
58425
58430
58432
58438
58442
58446
58447
58452
58453
58454
58455
58456
58479
58502
58551
58552
58553
58561
58563
58565
58568
58569
58570
58573
58578
58579
58581
58587
58588
58596
58598
58601
58603
58605
58609
58610
58611
58614
58616
58619
58630
58633
58641
58644
58646
58654
58655
58656
58658
58660
58663
58664
58668
58669
58672
58673
58674
58681
58687
58691
58692
58699
58701
58707
58709
58712
58717
58720
58722
58726
58733
58738
58739
58740
58742
58744
58746
58749
58753
58759
58760
58763
58768
58770
58771
58775
58776
58777
58781
58783
58784
58786
58790
58796
58801
58803
58807
58814
58821
58825
58826
58832
58837
58838
58841
58843
58844
58846
58851
58855
58856
58858
58861
58863
58864
58865
58866
58868
58869
58871
58877
58878
58880
58887
58895
58896
58904
58913
58928
58929
58930
58933
58936
58940
58942
58944
58946
58947
58950
58952
58956
58957
58959
58960
58961
58965
58966
58972
58981
58984
58988
58993
58998
59003
59004
59007
59012
59016
59018
59034
59035
59037
59039
59040
59041
59045
59050
59051
59057
59061
59063
59064
59072
59081
59087
59088
59104
59109
59124
59130
59135
59137
59144
59152
59153
59154
59163
59165
59168
59169
59172
59181
59193
59199
59204
59205
59208
59213
59214
59221
59236
59238
59243
59245
59246
59247
59250
59253
59255
59263
59266
59273
59274
59276
59277
59278
59280
59284
59285
59293
59296
59298
59303
59306
59308
59309
59310
59314
59318
59321
59325
59327
59329
59331
59333
59334
59341
59345
59347
59348
59350
59354
59357
59358
59365
59367
59368
59374
59376
59377
59379
59381
59382
59384
59390
59391
59397
59402
59409
59411
59412
59413
59418
59419
59420
59422
59423
59428
59432
59436
59441
59442
59445
59458
59466
59469
59488
59489
59490
59496
59497
59501
59519
59522
59526
59529
59530
59532
59533
59537
59541
59545
59546
59548
59550
59551
59553
59554
59555
59559
59562
59565
59567
59568
59570
59571
59573
59587
59588
59592
59597
59600
59604
59605
59609
59611
59612
59614
59617
59618
59621
59622
59626
59634
59637
59639
59640
59645
59646
59647
59648
59650
59654
59656
59657
59658
59660
59661
59662
59666
59670
59680
59686
59690
59699
59712
59719
59731
59736
59737
59740
59742
59743
59744
59746
59753
59757
59759
59760
59761
59764
59765
59770
59771
59774
59776
59778
59785
59787
59789
59790
59791
59794
59798
59799
59800
59802
59809
59812
59813
59818
59819
59820
59829
59834
59837
59841
59845
59846
59848
59849
59854
59858
59859
59862
59864
59870
59873
59878
59879
59882
59887
59888
59893
59897
59901
59903
59904
59909
59911
59919
59921
59929
59933
59939
59940
59941
59948
59949
59957
59958
59973
59984
59986
59993
59995
59996
59999
60007
60012
60015
60017
60020
60022
60025
60030
60031
60036
60045
60048
60050
60053
60056
60060
60070
60078
60084
60085
60102
60103
60105
60108
60113
60114
60120
60121
60134
60137
60138
60140
60142
60143
60144
60147
60149
60150
60159
60167
60168
60173
60174
60182
60188
60189
60190
60193
60194
60197
60201
60205
60208
60214
60215
60216
60220
60226
60227
60233
60234
60236
60243
60245
60247
60252
60256
60265
60266
60270
60292
60293
60296
60309
60312
60318
60319
60326
60327
60328
60332
60339
60342
60343
60345
60349
60351
60354
60357
60363
60366
60374
60379
60390
60397
60398
60399
60420
60422
60425
60427
60432
60433
60451
60454
60457
60460
60467
60471
60472
60481
60487
60493
60496
60497
60501
60504
60507
60525
60526
60530
60535
60538
60539
60540
60543
60552
60555
60558
60567
60575
60576
60594
60654
60661
60662
60673
60675
60685
60697
60698
60699
60700
60719
60725
60726
60728
60729
60735
60749
60750
60752
60753
60778
60779
60780
60786
60787
60792
60794
60795
60803
60805
60806
60807
60809
60818
60828
60830
60836
60837
60838
60845
60846
60848
60857
60859
60869
60872
60886
60893
60894
60898
60899
60905
60916
60919
60927
60937
60938
60940
60941
60942
60945
60952
60958
60959
60968
60980
60983
61000
61004
61005
61007
61009
61010
61037
61043
61046
61047
61049
61052
61066
61072
61079
61082
61087
61090
61095
61103
61109
61154
61183
61211
61268
61269
61270
61272
61286
61290
61291
61300
61305
61309
61310
61322
61325
61337
61341
61352
61354
61388
61759
61957
61958
61967
61975
61979
61990
61996
62006
62007
62008
62017
62019
62024
62060
62064
62071
62093
62094
62115
62117
62119
62120
62124
62127
62129
62130
62132
62135
62138
62142
62146
62155
62158
62165
62167
62177
62183
62188
62189
62193
62200
62201
62203
62217
62219
62225
62244
62250
62255
62277
62281
62284
62290
62296
62303
62311
62316
62327
62330
62331
62335
62336
62338
62352
62353
62362
62367
62372
62376
62377
62386
62393
62395
62405
62418
62420
62424
62427
62428
62429
62441
62448
62449
62451
62452
62453
62455
62459
62464
62469
62485
62490
62497
62501
62504
62505
62506
62507
62508
62509
62516
62523
62527
62530
62532
62533
62545
62547
62551
62556
62561
62563
62567
62568
62573
62580
62582
62584
62609
62611
62615
62618
62622
62624
62625
62628
62629
62634
62635
62637
62640
62664
62666
62668
62669
62676
62679
62682
62688
62690
62692
62695
62708
62710
62711
62715
62721
62723
62726
62728
62729
62737
62744
62748
62751
62752
62757
62772
62773
62776
62777
62779
62787
62790
62793
62794
62796
62806
62807
62808
62810
62812
62817
62819
62820
62824
62829
62831
62835
62837
62842
62845
62853
62855
62857
62860
62862
62864
62867
62876
62878
62886
62887
62888
62892
62894
62895
62896
62899
62901
62904
62905
62907
62916
62934
62960
62965
62966
62967
62978
62980
62983
62984
62986
62989
62990
62991
62993
62997
62998
63009
63017
63018
63022
63025
63033
63035
63059
63065
63080
63091
63092
63094
63099
63109
63113
63117
63118
63124
63130
63141
63143
63150
63156
63157
63172
63174
63183
63187
63190
63198
63200
63208
63232
63234
63236
63239
63243
63251
63254
63255
63270
63285
63287
63290
63296
63297
63302
63310
63314
63315
63316
63319
63322
63325
63326
63331
63333
63345
63354
63357
63360
63365
63367
63369
63372
63374
63376
63377
63378
63380
63383
63387
63389
63394
63406
63409
63410
63415
63421
63422
63424
63435
63436
63438
63440
63442
63447
63448
63450
63457
63458
63461
63463
63467
63478
63481
63483
63484
63485
63489
63491
63492
63493
63494
63522
63529
63531
63544
63545
63547
63550
63552
63563
63565
63566
63570
63571
63584
63591
63594
63600
63602
63604
63607
63611
63613
63614
63615
63617
63621
63624
63625
63627
63636
63642
63650
63662
63678
63679
63680
63682
63683
63688
63692
63693
63696
63697
63700
63701
63711
63719
63721
63722
63723
63724
63728
63735
63739
63740
63741
63742
63743
63744
63746
63747
63748
63750
63751
63752
63753
63761
63767
63773
63776
63777
63779
63780
63781
63787
63789
63794
63795
63800
63801
63803
63809
63816
63829
63836
63843
63849
63850
63863
63902
63920
63922
63930
63931
63938
63944
63946
63947
63951
63953
63960
63964
63965
63966
63967
63972
63975
63976
63984
63990
63993
63995
63996
63999
64000
64002
64003
64047
64048
64050
64059
64075
64076
64092
64097
64104
64105
64107
64108
64110
64117
64119
64121
64124
64126
64127
64128
64136
64144
64145
64147
64149
64151
64154
64156
64159
64161
64166
64176
64181
64185
64188
64189
64194
64199
64203
64205
64208
64213
64214
64216
64217
64223
64224
64226
64230
64234
64238
64241
64243
64247
64250
64258
64265
64268
64272
64280
64283
64287
64290
64298
64300
64305
64308
64309
64310
64311
64312
64315
64318
64320
64322
64327
64330
64338
64340
64342
64343
64344
64347
64358
64360
64362
64365
64368
64369
64374
64377
64379
64383
64386
64387
64388
64389
64390
64391
64396
64400
64406
64410
64417
64418
64419
64420
64421
64430
64431
64432
64434
64435
64436
64440
64442
64446
64449
64457
64460
64463
64464
64465
64466
64469
64470
64476
64479
64484
64485
64489
64491
64494
64495
64496
64499
64504
64510
64513
64517
64519
64521
64523
64524
64526
64535
64536
64547
64554
64561
64566
64570
64574
64585
64587
64593
64595
64603
64605
64610
64612
64613
64619
64623
64624
64631
64635
64637
64641
64647
64654
64660
64664
64668
64693
64701
64706
64711
64712
64716
64723
64725
64730
64732
64737
64738
64743
64745
64748
64749
64752
64757
64766
64767
64772
64773
64774
64782
64787
64788
64789
64790
64793
64797
64798
64801
64805
64806
64807
64808
64809
64810
64812
64814
64816
64824
64825
64828
64831
64834
64843
64844
64848
64851
64853
64860
64871
64872
64882
64889
64890
64892
64893
64898
64907
64915
64923
64931
64945
64948
64956
64959
64960
64965
64974
64976
64991
64996
65004
65006
65011
65035
65038
65041
65044
65046
65050
65052
65054
65074
65083
65090
65102
65105
65109
65112
65113
65116
65117
65118
65119
65120
65137
65146
65151
65152
65155
65159
65163
65167
65169
65173
65174
65179
65185
65190
65192
65200
65201
65209
65213
65214
65216
65217
65219
65221
65222
65223
65234
65247
65248
65253
65255
65256
65270
65271
65273
65274
65275
65276
65284
65289
65296
65300
65302
65306
65307
65308
65311
65312
65322
65325
65327
65330
65337
65343
65348
65350
65356
65363
65367
65369
65371
65377
65378
65383
65386
65390
65391
65395
65396
65399
65413
65416
65433
65435
65441
65442
65443
65446
65450
65451
65453
65454
65457
65462
65464
65466
65486
65500
65503
65508
65514
65515
65524
65525
65532
65533
65543
65547
65552
65555
65557
65559
65560
65563
65564
65565
65568
65569
65571
65573
65575
65576
65577
65578
65590
65592
65595
65599
65601
65608
65613
65621
65622
65623
65624
65636
65641
65648
65657
65662
65673
65677
65682
65684
65687
65695
65697
65707
65710
65714
65718
65723
65744
65745
65746
65755
65756
65760
65764
65765
65769
65771
65779
65781
65787
65790
65792
65793
65798
65807
65811
65813
65816
65819
65821
65824
65833
65834
65837
65848
65855
65856
65857
65864
65870
65873
65882
65887
65891
65892
65895
65900
65903
65916
65930
65936
65937
65942
65943
65945
65946
65948
65949
65950
65955
65960
65962
65964
65971
65980
65981
65982
65983
65988
65990
65998
65999
66002
66003
66005
66010
66014
66037
66039
66045
66050
66052
66059
66064
66070
66077
66086
66091
66100
66103
66106
66107
66113
66123
66126
66136
66139
66143
66145
66156
66158
66161
66166
66169
66173
66180
66183
66187
66190
66194
66196
66197
66198
66202
66204
66205
66206
66208
66209
66215
66224
66226
66229
66237
66240
66242
66243
66248
66249
66251
66253
66261
66263
66265
66267
66283
66284
66286
66288
66290
66292
66294
66297
66299
66303
66304
66307
66312
66313
66323
66326
66330
66333
66335
66336
66339
66343
66344
66345
66348
66356
66358
66368
66373
66374
66390
66391
66392
66394
66396
66398
66399
66401
66409
66413
66414
66416
66420
66424
66427
66429
66432
66443
66448
66450
66453
66462
66466
66467
66471
66475
66483
66486
66487
66494
66498
66499
66508
66515
66523
66534
66536
66538
66540
66545
66547
66548
66549
66555
66558
66562
66563
66565
66570
66571
66572
66580
66581
66583
66588
66590
66591
66595
66596
66597
66601
66604
66607
66617
66625
66628
66631
66638
66641
66645
66658
66661
66663
66665
66673
66678
66680
66681
66685
66687
66691
66694
66698
66699
66700
66704
66705
66712
66720
66721
66723
66724
66725
66728
66734
66737
66743
66746
66752
66754
66755
66756
66757
66759
66762
66763
66769
66773
66775
66778
66782
66783
66792
66797
66811
66813
66815
66818
66819
66825
66827
66836
66841
66842
66845
66849
66853
66857
66863
66864
66867
66873
66876
66880
66883
66884
66892
66893
66905
66908
66910
66912
66918
66919
66928
66932
66934
66935
66939
66944
66947
66950
66951
66952
66954
66957
66958
66961
66971
66981
66989
66993
66994
66995
66998
67000
67002
67011
67012
67014
67016
67020
67023
67024
67028
67032
67033
67036
67039
67046
67053
67055
67056
67057
67060
67061
67069
67070
67071
67083
67085
67086
67087
67088
67090
67095
67097
67099
67100
67101
67103
67112
67115
67116
67117
67121
67123
67125
67128
67134
67137
67140
67146
67151
67158
67160
67162
67167
67168
67170
67173
67176
67177
67178
67180
67183
67190
67192
67193
67194
67195
67204
67206
67212
67217
67218
67222
67238
67242
67246
67251
67253
67255
67256
67257
67262
67265
67268
67269
67275
67281
67285
67294
67306
67308
67310
67311
67314
67325
67327
67328
67338
67339
67343
67344
67349
67355
67356
67357
67361
67366
67367
67389
67390
67397
67399
67400
67402
67416
67422
67426
67430
67432
67436
67437
67439
67440
67444
67447
67449
67451
67455
67456
67461
67463
67468
67469
67470
67477
67479
67482
67486
67489
67492
67493
67496
67498
67506
67511
67516
67517
67519
67523
67524
67527
67535
67536
67546
67549
67550
67551
67552
67554
67557
67558
67560
67563
67566
67567
67570
67573
67578
67579
67582
67597
67599
67601
67610
67613
67614
67617
67620
67623
67624
67628
67635
67636
67638
67639
67640
67642
67644
67652
67654
67658
67659
67660
67669
67676
67678
67683
67684
67686
67687
67689
67690
67693
67696
67698
67699
67702
67704
67707
67711
67712
67716
67722
67724
67726
67734
67735
67736
67742
67747
67748
67754
67762
67768
67770
67781
67789
67790
67791
67792
67793
67795
67796
67798
67804
67808
67811
67812
67815
67818
67821
67822
67823
67826
67833
67836
67837
67838
67843
67844
67845
67847
67848
67853
67855
67856
67860
67861
67862
67864
67867
67871
67872
67875
67897
67899
67901
67906
67907
67908
67916
67918
67922
67928
67931
67933
67935
67948
67949
67952
67956
67964
67966
67970
67975
67976
67977
67979
67980
67982
67987
67991
68000
68001
68002
68007
68010
68016
68017
68018
68020
68025
68029
68031
68034
68036
68039
68043
68044
68045
68048
68049
68057
68059
68063
68064
68069
68075
68080
68081
68085
68086
68087
68090
68092
68096
68106
68109
68118
68120
68121
68123
68126
68129
68137
68139
68141
68144
68145
68149
68166
68167
68171
68177
68183
68186
68187
68199
68200
68201
68202
68203
68205
68211
68212
68214
68216
68223
68228
68229
68230
68238
68242
68256
68259
68263
68266
68267
68269
68271
68272
68273
68274
68277
68283
68289
68291
68298
68306
68307
68308
68315
68316
68321
68327
68329
68331
68333
68334
68341
68342
68343
68344
68347
68352
68354
68356
68357
68360
68363
68364
68365
68369
68370
68375
68376
68377
68382
68383
68385
68389
68390
68391
68398
68399
68400
68406
68409
68415
68418
68422
68425
68428
68433
68434
68436
68437
68438
68441
68443
68444
68445
68452
68453
68461
68462
68468
68472
68475
68476
68484
68485
68487
68489
68490
68496
68497
68505
68507
68510
68513
68517
68519
68522
68527
68529
68530
68531
68535
68537
68546
68550
68554
68559
68566
68567
68572
68574
68594
68595
68597
68598
68599
68602
68605
68607
68613
68614
68628
68630
68637
68640
68644
68645
68647
68648
68649
68652
68659
68660
68661
68667
68676
68678
68679
68681
68683
68685
68689
68692
68698
68702
68703
68709
68715
68721
68724
68725
68729
68731
68734
68737
68744
68748
68755
68756
68761
68762
68763
68764
68765
68769
68771
68777
68785
68789
68792
68799
68804
68806
68807
68811
68812
68813
68817
68820
68823
68824
68836
68843
68845
68848
68851
68854
68855
68862
68864
68865
68872
68873
68877
68882
68888
68890
68893
68894
68895
68896
68901
68903
68905
68906
68908
68912
68913
68914
68927
68928
68931
68937
68939
68940
68950
68952
68958
68960
68962
68965
68967
68969
68975
68978
68980
68986
68988
68990
68991
68996
69001
69009
69011
69017
69018
69023
69025
69029
69030
69043
69047
69049
69051
69052
69064
69066
69069
69074
69075
69077
69078
69083
69085
69088
69091
69093
69096
69097
69100
69104
69106
69107
69109
69114
69118
69122
69129
69133
69136
69138
69140
69144
69149
69151
69158
69161
69171
69176
69177
69180
69186
69192
69194
69195
69199
69208
69224
69243
69244
69252
69263
69266
69269
69272
69284
69290
69300
69302
69304
69305
69306
69310
69315
69320
69321
69337
69341
69354
69357
69360
69383
69387
69389
69395
69396
69397
69403
69407
69408
69411
69416
69417
69423
69441
69447
69450
69451
69470
69472
69475
69478
69488
69492
69493
69496
69500
69513
69514
69517
69518
69528
69535
69541
69543
69545
69552
69560
69563
69566
69567
69575
69580
69583
69585
69606
69608
69613
69616
69617
69619
69622
69625
69626
69627
69629
69633
69634
69644
69645
69647
69648
69651
69653
69658
69668
69669
69680
69691
69692
69694
69697
69700
69705
69712
69715
69717
69732
69735
69739
69741
69743
69749
69756
69766
69768
69770
69771
69776
69778
69781
69789
69790
69792
69795
69797
69801
69802
69803
69810
69812
69815
69820
69823
69824
69829
69830
69837
69841
69849
69850
69852
69854
69859
69861
69862
69864
69868
69869
69875
69880
69887
69888
69889
69890
69896
69901
69906
69910
69917
69918
69924
69925
69927
69932
69935
69938
69939
69940
69942
69945
69947
69951
69953
69954
69955
69958
69960
69966
69983
69992
69996
70000
[ 228 ]
40606
40789
41813
46406
46410
50014
50028
50341
50416
50456
50489
50501
50506
50510
50556
50577
50601
50604
50607
50640
50653
50789
50806
50930
51023
51046
51070
51075
51078
51079
51087
51205
51347
51483
51499
51502
51530
51588
51623
51678
51681
51718
51742
51754
51759
51775
51792
51796
51798
51799
51802
51827
51917
51961
52000
52011
52012
52038
52045
52048
52163
52234
52262
52313
52336
52366
52387
52569
52578
52605
52622
52657
52658
52700
52704
52705
52721
52753
52762
52764
52771
52788
52822
52826
52827
52829
52834
52841
52850
52864
52899
52902
52914
52925
52932
52933
52935
52938
52979
53037
53050
53065
53081
53342
53486
53489
53506
53507
53508
53531
53550
53683
53684
53722
53728
53760
53784
53803
53885
53936
53943
53960
53971
53985
53992
54002
54003
54010
54033
54034
54049
54068
54122
54156
54203
54204
54220
54248
54262
54302
54346
54368
54371
54402
54412
54421
54424
54432
54437
54447
54479
54480
54511
54548
54551
54552
54615
54708
54773
54864
54868
54958
54971
54998
55125
55133
55158
55163
55164
55200
55224
55529
55554
55591
55594
55721
55772
55829
55832
55833
55838
55853
56047
56049
56094
56134
56320
56333
56348
56399
56422
56459
56466
56547
56604
56605
56610
56611
56637
56655
56721
56722
56723
56725
56728
56729
56730
56733
56741
56771
56777
56784
56904
56912
56920
56926
56929
56963
57033
57040
57044
57070
57129
57163
57262
57271
57310
57336
57342
57357
57408
57427
57433
57434
57435
57439
57440
57703
57807
57809
57842
57847
57853
58117
58122
58140
58151
58178
58179
58181
58188
58193
58212
58213
58215
58223
58236
58247
58274
58316
58326
58377
58389
58404
58414
58417
58468
58477
58482
58493
58494
58501
58508
58509
58529
58538
58539
58540
58548
58549
58556
58564
58572
58575
58593
58595
58600
58613
58635
58639
58643
58649
58651
58659
58728
58729
58737
58748
58756
58758
58764
58769
58782
58811
58828
58951
58967
59006
59065
59093
59101
59103
59114
59118
59121
59147
59229
59311
59359
59361
59578
59630
59631
59644
59752
59772
59803
59814
59828
59835
59896
59945
60047
60082
60092
60130
60135
60175
60229
60280
60301
60348
60431
60473
60506
60508
60510
60529
60534
60546
60883
60897
60920
61018
61153
61330
62069
62154
62175
62264
62378
62489
62499
62541
62583
62589
62592
62603
62687
62755
62815
62816
62858
62875
62880
63039
63126
63205
63222
63242
63390
63569
63778
63852
64095
64139
64210
64261
64264
64350
64372
64398
64441
64483
64520
64615
64643
64646
64726
64727
64769
64830
64833
65078
65096
65142
65150
65193
65224
65227
65229
65233
65245
65281
65294
65336
65484
65522
65659
65698
65704
65705
65741
65762
65831
65860
65952
65961
65974
66000
66012
66027
66105
66114
66115
66134
66185
66320
66321
66357
66363
66370
66402
66411
66444
66446
66502
66513
66559
66568
66586
66634
66639
66669
66677
66730
66823
66923
66924
66926
66976
67098
67149
67248
67250
67353
67373
67465
67476
67580
67668
67729
67746
67923
67938
68042
68094
68140
68180
68257
68348
68429
68467
68469
68609
68634
68693
68759
68768
68791
68793
68794
68798
68810
68821
68846
68852
68954
68955
68963
69005
69020
69079
69098
69134
69275
69421
69429
69495
69501
69559
69609
69611
69614
69737
69761
69793
69816
69999
[ 229 ]
35266
35268
35269
35323
35355
35365
35370
35390
35436
39227
39238
39271
40246
41309
42117
50574
50591
52937
52975
52977
52988
54736
54737
57128
58469
58473
58506
58516
58520
58524
58525
59095
59096
59097
59113
60884
62725
[ 230 ]
2832
2894
2898
2923
2979
2981
3072
32398
32456
34896
34907
35174
35176
35205
35314
35366
35367
35400
35402
35426
35427
39226
39230
39231
39240
39254
39256
39261
39266
39267
39411
40192
40530
41421
42138
42167
42196
43459
43480
45083
52952
[ 231 ]
2823
2825
2828
2829
2858
2860
2862
2863
2864
2865
2888
2891
2896
2900
2903
2906
2907
2908
2910
2911
2926
2942
2948
2966
2974
2977
2986
3010
3011
3048
3054
3060
3066
3069
35068
35393
35405
39124
39127
39190
39210
39214
39233
39251
40059
40248
41934
43456
43457
43555
45499
45500
[ 232 ]
2796
2807
2818
2821
2826
2830
2843
2855
2856
2861
2880
2882
2899
2905
2927
2929
2949
2952
2967
2973
2980
2983
3001
3002
3036
3040
39103
39105
39110
39149
39211
39216
39221
39224
43489
45005
45988
46170
[ 233 ]
2761
2767
2769
2773
2781
2782
2788
2792
2793
2798
2809
2813
2817
2819
2820
2836
2838
2842
2845
2881
3003
3033
3078
45453
[ 234 ]
2732
2745
2748
2756
2762
2766
2768
2783
2784
2803
2811
2816
2841
39112
39185
39187
46164
[ 235 ]
2742
2749
2750
2751
2755
[ 236 ]
2731
2733
2736
2744
[ 240 ]
2302
[ 257 ]
61583
61605
61627
61641
61644
61663
61666
61689
61696
61705
61708
61729
61730
61735
61736
61744
61820
[ 258 ]
50046
50063
50230
50352
50364
50382
50384
50478
50479
50723
50729
50747
50756
50834
50847
50916
50926
50953
50963
50972
50973
51036
51053
51116
51245
51292
51293
51299
51306
51382
51420
51431
51449
51454
51458
51517
51537
51592
51609
51672
51749
51965
51969
51990
52017
52083
52109
52116
52164
52189
52299
52303
52401
52405
52413
52414
52419
52453
52479
52489
52521
52561
52803
52891
53054
53058
53090
53237
53242
53257
53258
53280
53287
53312
53313
53317
53318
53319
53327
53338
53350
53351
53376
53378
53382
53385
53393
53422
53463
53468
53471
53472
53563
53566
53571
53665
53742
53758
53797
53891
53893
54042
54061
54114
54121
54144
54150
54240
54261
54304
54388
54466
54503
54609
54622
54624
54659
54661
54806
54807
54813
54834
54838
54855
54878
54899
54933
54938
54999
55004
55013
55049
55074
55077
55089
55095
55154
55157
55218
55280
55318
55356
55366
55391
55393
55540
55581
55923
55956
55984
55985
55989
56076
56077
56078
56079
56080
56125
56133
56285
56293
56357
56495
56542
56627
56632
56657
56703
56744
56798
56805
56839
56848
56990
57000
57026
57091
57116
57124
57152
57196
57199
57209
57223
57285
57299
57349
57368
57373
57378
57497
57509
57515
57555
57562
57564
57578
57584
57585
57587
57596
57600
57635
57638
57641
57642
57647
57648
57649
57651
57669
57672
57677
57680
57685
57744
57747
57759
57818
57891
57916
57919
57926
57930
57941
57960
57962
57996
58004
58018
58025
58032
58057
58132
58164
58218
58242
58348
58657
58788
58809
58810
58816
58827
58829
58879
59046
59355
59401
59424
59425
59443
59447
59572
59714
59825
59872
59964
59965
59998
60026
60224
60251
60259
60278
60300
60303
60307
60313
60356
60376
60389
60416
60418
60428
60441
60448
60521
60544
60568
60578
60579
60589
60656
60659
60692
60694
60705
60706
60718
60722
60793
60802
60812
60814
60817
60826
60875
60876
60878
60881
60904
60921
60929
60931
60953
60957
60985
60987
60990
60993
61003
61053
61061
61074
61075
61078
61081
61185
61263
61273
61276
61289
61329
61336
61366
61371
61376
61396
61398
61423
61425
61426
61437
61446
61449
61452
61455
61458
61461
61465
61498
61506
61510
61523
61524
61525
61526
61527
61530
61534
61549
61552
61555
61561
61569
61575
61577
61581
61587
61598
61601
61608
61611
61614
61615
61619
61621
61622
61626
61628
61636
61637
61638
61652
61656
61657
61674
61716
61718
61719
61731
61732
61771
61775
61777
61779
61782
61810
61813
61817
61821
61828
61838
61841
61843
61845
61928
61934
61960
61989
62015
62020
62026
62043
62045
62056
62134
62148
62150
62160
62170
62202
62220
62236
62251
62294
62329
62337
62346
62383
62384
62404
62416
62450
62678
62754
62782
62828
62830
62833
62848
62865
62873
62910
62911
62944
63014
63023
63031
63044
63048
63070
63073
63074
63098
63133
63155
63207
63266
63327
63370
63381
63401
63411
63486
63506
63519
63521
63530
63556
63579
63597
63689
63695
63709
63763
63764
63770
63772
63783
63786
63827
63830
63832
63835
63837
63848
63851
63870
63872
63877
63880
63896
63907
63921
63929
63934
63935
63937
63940
63958
64013
64029
64058
64091
64093
64132
64165
64190
64204
64237
64256
64273
64303
64314
64348
64407
64427
64453
64627
64676
64864
64884
64888
64894
64899
64901
64909
64912
64927
64929
64951
64968
64972
64978
64994
64995
65007
65016
65018
65021
65029
65030
65032
65045
65047
65053
65068
65069
65084
65087
65093
65107
65160
65166
65176
65177
65210
65265
65285
65292
65297
65298
65318
65324
65360
65384
65408
65419
65471
65477
65479
65482
65506
65512
65513
65539
65610
65619
65647
65654
65668
65675
65725
65734
65736
65766
65775
65796
65809
65825
65827
65847
65871
65875
65984
65996
66055
66092
66093
66116
66141
66150
66154
66155
66157
66175
66282
66298
66308
66309
66353
66380
66383
66384
66434
66435
66472
66530
66537
66598
66683
66766
66789
66793
66838
66865
66866
66889
66909
66913
66936
66955
66965
66999
67035
67058
67118
67119
67122
67208
67216
67221
67224
67225
67239
67271
67293
67298
67333
67364
67382
67388
67412
67457
67485
67542
67583
67591
67594
67598
67608
67612
67650
67656
67692
67719
67730
67737
67764
67783
67784
67788
67814
67858
67932
67963
67993
67996
68008
68021
68038
68111
68124
68156
68182
68185
68189
68194
68196
68261
68294
68319
68322
68371
68528
68543
68548
68575
68576
68577
68600
68639
68701
68754
68829
68867
68874
68878
68926
69014
69035
69038
69046
69076
69090
69112
69137
69178
69188
69259
69331
69334
69351
69358
69404
69409
69434
69460
69463
69485
69497
69524
69532
69544
69547
69571
69649
69650
69654
69657
69659
69660
69664
69806
69885
69936
69978
69987
[ 259 ]
35333
35337
35341
40547
46402
50002
50006
50009
50011
50024
50065
50076
50108
50111
50136
50187
50239
50242
50342
50347
50351
50355
50359
50363
50369
50370
50371
50373
50375
50376
50379
50394
50395
50396
50403
50405
50410
50411
50436
50438
50441
50450
50458
50463
50480
50482
50486
50491
50492
50495
50498
50511
50518
50520
50527
50538
50545
50552
50553
50570
50583
50593
50594
50605
50616
50624
50627
50639
50658
50660
50667
50669
50676
50679
50690
50692
50702
50705
50706
50711
50712
50716
50719
50724
50728
50734
50736
50738
50740
50741
50743
50744
50745
50753
50754
50762
50765
50776
50788
50798
50810
50811
50814
50817
50818
50819
50824
50825
50842
50862
50895
50896
50900
50917
50921
50924
50950
50954
51004
51025
51030
51032
51034
51044
51047
51048
51049
51056
51061
51064
51076
51082
51094
51098
51100
51108
51117
51123
51141
51143
51149
51155
51159
51160
51163
51164
51176
51181
51183
51201
51208
51210
51223
51249
51255
51256
51270
51282
51291
51296
51311
51325
51327
51334
51338
51340
51351
51361
51381
51386
51393
51404
51405
51419
51423
51433
51435
51443
51446
51448
51452
51459
51460
51468
51469
51475
51478
51485
51489
51495
51500
51506
51507
51514
51520
51521
51542
51548
51561
51567
51571
51580
51594
51598
51601
51606
51616
51617
51628
51634
51637
51642
51645
51646
51648
51675
51676
51677
51683
51689
51691
51736
51743
51746
51757
51760
51762
51772
51779
51784
51803
51806
51813
51819
51823
51833
51834
51841
51843
51846
51865
51881
51892
51896
51897
51898
51901
51922
51928
51937
51946
51962
51964
51968
51970
51984
51996
51997
52003
52013
52020
52026
52044
52046
52047
52096
52106
52115
52127
52128
52130
52133
52135
52136
52138
52139
52140
52150
52153
52154
52155
52158
52166
52168
52192
52197
52226
52255
52270
52293
52350
52389
52390
52392
52395
52397
52407
52417
52420
52446
52456
52457
52474
52494
52506
52512
52532
52537
52550
52553
52562
52630
52637
52644
52659
52662
52666
52671
52677
52691
52732
52747
52756
52757
52798
52799
52802
52807
52816
52817
52819
52843
52846
52847
52848
52854
52862
52870
52877
52878
52917
52980
53005
53009
53010
53011
53012
53013
53016
53024
53026
53029
53046
53073
53074
53077
53082
53084
53091
53096
53108
53111
53112
53118
53127
53129
53138
53139
53142
53158
53168
53180
53181
53182
53186
53190
53195
53196
53198
53199
53203
53207
53213
53227
53232
53235
53246
53247
53255
53281
53283
53299
53301
53305
53321
53326
53328
53380
53381
53445
53451
53454
53456
53459
53464
53467
53469
53470
53477
53478
53479
53483
53485
53493
53494
53497
53510
53515
53521
53522
53526
53527
53529
53530
53532
53534
53538
53548
53551
53552
53554
53559
53564
53567
53578
53592
53612
53658
53666
53667
53668
53681
53687
53688
53692
53694
53699
53705
53713
53714
53718
53719
53730
53731
53733
53736
53737
53743
53744
53745
53746
53747
53753
53755
53769
53770
53771
53773
53781
53792
53807
53811
53812
53815
53816
53823
53826
53828
53830
53838
53844
53849
53851
53852
53854
53856
53858
53864
53874
53879
53883
53884
53892
53895
53897
53907
53908
53921
53932
53935
53941
53944
53948
53949
53953
53959
53961
53965
53968
53986
53987
53989
53990
54000
54006
54012
54015
54016
54035
54039
54043
54045
54047
54053
54062
54063
54071
54072
54081
54083
54086
54088
54091
54097
54108
54109
54110
54111
54115
54117
54119
54120
54127
54131
54134
54136
54142
54147
54152
54159
54160
54163
54172
54173
54174
54177
54178
54179
54181
54182
54183
54187
54190
54194
54201
54222
54223
54227
54231
54234
54236
54247
54252
54260
54263
54265
54268
54269
54273
54278
54283
54284
54285
54288
54295
54297
54299
54303
54305
54307
54309
54310
54314
54315
54316
54323
54325
54328
54329
54331
54337
54338
54341
54357
54360
54365
54369
54377
54382
54385
54397
54398
54410
54413
54418
54423
54425
54430
54443
54445
54456
54457
54460
54465
54471
54501
54502
54504
54514
54521
54522
54524
54525
54528
54530
54532
54549
54550
54583
54584
54589
54591
54596
54602
54604
54605
54608
54613
54623
54626
54627
54629
54632
54633
54638
54639
54640
54644
54649
54654
54665
54674
54675
54681
54683
54687
54688
54691
54692
54693
54695
54699
54700
54701
54702
54742
54760
54764
54767
54769
54777
54792
54803
54804
54805
54833
54845
54849
54851
54852
54853
54854
54858
54861
54866
54867
54876
54883
54887
54888
54889
54893
54896
54897
54904
54907
54914
54915
54919
54920
54928
54934
54939
54941
54957
54972
54973
54974
54985
54991
54994
54995
55001
55008
55021
55025
55027
55028
55031
55032
55034
55038
55041
55043
55044
55048
55070
55072
55084
55087
55094
55106
55122
55126
55132
55138
55139
55142
55152
55153
55155
55160
55167
55170
55172
55177
55185
55198
55199
55206
55208
55211
55234
55238
55251
55254
55263
55266
55268
55272
55274
55277
55278
55279
55281
55282
55288
55301
55306
55309
55312
55314
55317
55347
55348
55353
55357
55361
55372
55376
55380
55381
55386
55399
55400
55401
55402
55404
55407
55409
55410
55419
55421
55429
55431
55440
55449
55521
55530
55537
55546
55547
55548
55580
55584
55611
55612
55625
55627
55681
55719
55720
55724
55726
55732
55733
55734
55735
55737
55739
55748
55749
55759
55762
55764
55770
55773
55776
55785
55786
55792
55796
55797
55803
55804
55806
55823
55824
55830
55831
55836
55848
55849
55850
55851
55857
55858
55863
55864
55870
55873
55876
55877
55884
55885
55887
55888
55892
55893
55895
55897
55901
55905
55906
55907
55910
55919
55930
55932
55933
55936
55939
55941
55942
55966
55969
55973
55974
55977
55981
55982
55997
56055
56057
56059
56068
56075
56082
56089
56092
56104
56106
56107
56108
56110
56111
56117
56123
56124
56136
56137
56138
56147
56154
56156
56182
56230
56279
56282
56283
56284
56290
56291
56292
56298
56303
56310
56328
56351
56352
56367
56379
56383
56411
56415
56467
56472
56494
56573
56574
56576
56607
56608
56623
56625
56631
56636
56642
56656
56666
56693
56701
56702
56704
56716
56718
56731
56739
56740
56742
56747
56750
56751
56752
56763
56764
56765
56795
56803
56810
56813
56817
56825
56833
56834
56844
56846
56849
56851
56852
56861
56862
56867
56886
56892
56895
56899
56905
56906
56909
56919
56928
56964
56969
56996
57003
57013
57016
57029
57030
57031
57056
57058
57069
57079
57080
57081
57087
57093
57096
57100
57101
57105
57126
57127
57156
57159
57160
57166
57169
57171
57173
57177
57178
57183
57187
57188
57192
57195
57207
57217
57219
57232
57235
57238
57244
57247
57250
57258
57260
57268
57280
57286
57287
57289
57291
57295
57298
57300
57303
57311
57314
57341
57344
57348
57350
57351
57354
57355
57358
57366
57370
57381
57394
57395
57400
57402
57404
57411
57419
57424
57425
57428
57431
57437
57446
57467
57468
57470
57474
57476
57478
57487
57491
57496
57504
57513
57523
57524
57534
57535
57537
57538
57541
57544
57545
57546
57547
57549
57568
57575
57582
57586
57593
57605
57619
57622
57627
57640
57643
57644
57653
57654
57656
57657
57659
57667
57668
57675
57683
57684
57687
57691
57692
57694
57698
57699
57700
57701
57707
57716
57719
57723
57727
57728
57731
57733
57735
57737
57738
57739
57743
57750
57751
57752
57764
57765
57776
57784
57792
57793
57800
57801
57803
57814
57815
57819
57831
57878
57888
57898
57928
57932
57939
57965
57972
57988
58002
58037
58044
58048
58054
58058
58065
58067
58081
58092
58116
58127
58133
58134
58135
58139
58144
58149
58152
58157
58158
58159
58160
58167
58173
58174
58175
58177
58185
58196
58214
58219
58227
58235
58238
58249
58250
58251
58262
58271
58276
58284
58318
58319
58332
58334
58335
58340
58341
58343
58349
58354
58359
58360
58361
58362
58363
58364
58366
58367
58370
58372
58380
58386
58411
58415
58420
58441
58448
58449
58450
58507
58541
58555
58567
58585
58589
58599
58602
58604
58608
58612
58617
58620
58622
58623
58627
58629
58632
58645
58666
58670
58671
58676
58677
58679
58683
58685
58689
58695
58696
58697
58702
58703
58708
58710
58711
58714
58715
58718
58721
58723
58724
58731
58750
58762
58766
58767
58773
58778
58780
58785
58787
58789
58791
58792
58793
58797
58799
58800
58802
58805
58815
58817
58820
58830
58833
58834
58842
58850
58852
58860
58862
58867
58870
58872
58873
58874
58882
58884
58890
58891
58894
58898
58899
58900
58903
58909
58910
58911
58912
58916
58918
58920
58926
58927
58934
58937
58943
58948
58949
58963
58969
58977
58980
58982
58987
59008
59013
59014
59015
59047
59056
59074
59078
59082
59084
59091
59110
59122
59123
59150
59160
59188
59212
59230
59231
59234
59239
59248
59249
59254
59268
59272
59287
59305
59317
59336
59339
59349
59353
59356
59360
59362
59363
59364
59366
59369
59370
59372
59373
59375
59378
59386
59389
59393
59395
59396
59403
59405
59407
59408
59415
59417
59430
59438
59440
59450
59455
59460
59463
59464
59467
59471
59474
59477
59482
59494
59495
59498
59502
59528
59540
59557
59574
59579
59581
59583
59585
59590
59591
59594
59595
59598
59602
59608
59613
59627
59628
59629
59632
59633
59636
59641
59652
59663
59664
59665
59676
59691
59707
59730
59734
59735
59741
59751
59763
59767
59768
59773
59775
59779
59784
59804
59807
59808
59817
59822
59826
59830
59840
59844
59851
59852
59860
59863
59866
59867
59875
59877
59880
59881
59885
59891
59912
59918
59920
59924
59927
59928
59931
59959
59963
59970
59971
59972
59977
59978
59981
59987
59988
59989
59990
60003
60006
60023
60029
60035
60046
60055
60071
60083
60090
60091
60098
60104
60112
60127
60145
60146
60151
60152
60155
60163
60164
60166
60171
60177
60178
60184
60186
60195
60196
60206
60217
60219
60232
60235
60250
60254
60255
60261
60262
60284
60285
60286
60305
60308
60310
60311
60329
60331
60337
60340
60341
60347
60359
60362
60364
60365
60369
60370
60371
60372
60373
60375
60383
60384
60385
60387
60388
60391
60400
60402
60404
60406
60407
60411
60412
60417
60421
60435
60436
60437
60442
60443
60444
60447
60449
60452
60455
60456
60461
60468
60475
60477
60478
60480
60482
60484
60491
60492
60509
60511
60522
60524
60531
60532
60533
60536
60549
60553
60560
60564
60572
60574
60577
60585
60588
60591
60593
60595
60651
60653
60655
60657
60658
60667
60668
60669
60670
60676
60687
60690
60704
60712
60727
60732
60733
60740
60776
60782
60791
60797
60804
60819
60820
60821
60824
60827
60829
60831
60832
60847
60855
60873
60889
60891
60895
60896
60900
60902
60906
60907
60908
60912
60914
60917
60923
60926
60932
60935
60954
60962
60969
60989
60992
61002
61015
61017
61019
61021
61028
61036
61039
61044
61045
61048
61050
61055
61057
61060
61063
61064
61067
61071
61073
61076
61077
61085
61094
61104
61106
61122
61150
61164
61176
61184
61190
61191
61214
61219
61230
61239
61240
61249
61261
61266
61267
61277
61287
61294
61323
61331
61335
61346
61347
61349
61350
61351
61353
61365
61422
61466
61480
61551
61767
61834
61853
61866
61889
61899
61907
61945
61951
61962
61963
61964
61970
61984
61985
61991
62003
62010
62025
62039
62040
62049
62050
62052
62054
62062
62063
62067
62090
62123
62125
62131
62139
62140
62143
62145
62151
62152
62153
62156
62159
62166
62169
62171
62176
62178
62180
62181
62184
62194
62196
62197
62199
62206
62208
62209
62212
62216
62218
62221
62222
62226
62228
62229
62230
62231
62232
62233
62239
62241
62247
62248
62252
62253
62259
62261
62265
62267
62268
62269
62270
62276
62279
62280
62285
62286
62289
62304
62306
62310
62317
62320
62326
62334
62340
62341
62348
62349
62358
62361
62364
62365
62369
62370
62373
62380
62385
62388
62389
62390
62397
62398
62400
62401
62402
62403
62407
62409
62412
62417
62423
62425
62430
62431
62432
62446
62447
62467
62472
62473
62480
62488
62492
62503
62512
62515
62517
62518
62519
62521
62522
62524
62528
62537
62540
62542
62543
62544
62548
62549
62552
62553
62554
62560
62565
62566
62570
62571
62574
62576
62579
62591
62593
62595
62607
62608
62610
62612
62621
62630
62632
62638
62639
62641
62646
62653
62654
62655
62656
62658
62660
62661
62662
62663
62665
62667
62671
62673
62674
62675
62677
62680
62684
62685
62693
62696
62697
62698
62703
62707
62713
62720
62722
62727
62731
62734
62735
62740
62745
62746
62747
62753
62756
62758
62760
62761
62764
62765
62767
62768
62769
62775
62780
62783
62792
62798
62802
62803
62804
62809
62813
62818
62825
62838
62840
62841
62846
62849
62852
62859
62863
62869
62871
62872
62882
62884
62885
62889
62890
62893
62903
62906
62909
62912
62918
62924
62959
62961
62963
62971
62976
62977
62994
63004
63005
63011
63012
63016
63019
63021
63028
63029
63041
63042
63043
63046
63047
63051
63052
63056
63066
63067
63068
63075
63079
63083
63084
63085
63095
63096
63101
63102
63105
63107
63108
63110
63112
63114
63115
63116
63120
63127
63128
63129
63131
63132
63134
63140
63147
63152
63153
63158
63164
63168
63170
63173
63177
63178
63180
63181
63186
63199
63204
63206
63209
63210
63211
63212
63214
63216
63218
63219
63221
63224
63226
63235
63237
63240
63246
63249
63250
63252
63253
63257
63258
63260
63268
63272
63274
63279
63281
63286
63289
63291
63294
63295
63299
63301
63304
63306
63307
63309
63312
63313
63320
63321
63336
63338
63342
63346
63348
63351
63352
63355
63359
63364
63382
63384
63388
63392
63393
63395
63396
63397
63398
63400
63402
63403
63407
63412
63414
63416
63417
63423
63425
63427
63428
63429
63430
63437
63441
63443
63445
63449
63453
63459
63460
63465
63466
63468
63470
63473
63474
63477
63479
63480
63488
63496
63497
63498
63500
63507
63509
63512
63513
63515
63525
63528
63532
63535
63537
63540
63548
63555
63557
63568
63583
63587
63593
63595
63620
63622
63623
63630
63632
63633
63634
63644
63651
63653
63656
63657
63659
63660
63664
63673
63694
63704
63717
63718
63725
63726
63727
63729
63738
63754
63756
63757
63758
63768
63785
63788
63791
63793
63796
63797
63808
63813
63818
63822
63839
63847
63853
63858
63859
63860
63861
63864
63871
63884
63885
63899
63903
63908
63910
63911
63942
63954
63956
63968
63971
63977
63987
63997
63998
64004
64005
64009
64020
64021
64030
64032
64039
64049
64053
64064
64073
64074
64077
64082
64083
64085
64086
64096
64100
64102
64109
64112
64114
64123
64133
64135
64141
64143
64155
64158
64178
64220
64228
64229
64232
64240
64242
64244
64269
64271
64275
64278
64291
64302
64313
64317
64333
64334
64335
64341
64353
64355
64356
64361
64364
64366
64367
64370
64371
64373
64375
64376
64380
64381
64384
64394
64403
64405
64412
64416
64422
64425
64428
64439
64447
64450
64456
64467
64471
64473
64474
64497
64503
64506
64507
64516
64518
64522
64531
64532
64550
64572
64577
64579
64589
64598
64602
64604
64606
64620
64626
64628
64642
64651
64652
64653
64656
64678
64680
64708
64709
64714
64719
64720
64729
64733
64734
64753
64761
64762
64763
64764
64792
64794
64796
64799
64839
64846
64849
64852
64854
64855
64856
64857
64858
64859
64865
64867
64868
64869
64876
64880
64883
64895
64903
64908
64910
64913
64914
64919
64922
64925
64932
64933
64942
64946
64961
64963
64966
64969
64973
64979
64983
64984
64985
64986
64987
64989
64990
65002
65003
65005
65010
65013
65014
65022
65025
65033
65034
65040
65042
65055
65058
65062
65070
65073
65076
65077
65080
65081
65082
65086
65089
65091
65092
65100
65101
65103
65104
65108
65126
65127
65128
65135
65136
65138
65141
65149
65153
65154
65157
65161
65162
65164
65165
65168
65171
65181
65184
65187
65189
65191
65194
65198
65199
65207
65215
65220
65228
65241
65244
65246
65257
65261
65268
65269
65272
65277
65279
65282
65286
65293
65299
65301
65309
65315
65317
65319
65323
65326
65333
65334
65340
65354
65355
65357
65359
65361
65362
65364
65365
65366
65373
65379
65387
65394
65403
65406
65417
65434
65436
65438
65463
65465
65467
65468
65478
65485
65489
65493
65495
65497
65499
65502
65505
65516
65526
65527
65528
65535
65537
65542
65550
65572
65579
65582
65585
65596
65607
65611
65612
65625
65637
65640
65645
65646
65655
65661
65664
65665
65678
65679
65681
65686
65688
65690
65692
65702
65706
65708
65709
65711
65720
65722
65726
65731
65761
65768
65774
65783
65784
65785
65789
65791
65801
65804
65805
65808
65812
65818
65822
65823
65829
65830
65832
65835
65840
65854
65867
65874
65890
65893
65898
65899
65901
65902
65912
65914
65920
65923
65925
65934
65938
65941
65944
65953
65954
65958
65965
65968
65976
65977
65979
65986
65987
65991
66001
66006
66009
66018
66020
66024
66041
66042
66046
66048
66049
66063
66065
66069
66071
66074
66082
66085
66095
66096
66097
66098
66099
66104
66108
66109
66111
66112
66119
66120
66124
66129
66130
66137
66142
66148
66149
66151
66152
66153
66160
66163
66164
66165
66168
66170
66174
66181
66182
66188
66189
66200
66212
66220
66227
66232
66233
66235
66244
66245
66256
66257
66262
66266
66268
66269
66273
66276
66277
66281
66285
66291
66293
66300
66306
66317
66318
66331
66337
66341
66349
66350
66352
66354
66360
66361
66364
66367
66369
66371
66377
66378
66382
66385
66386
66388
66395
66404
66406
66408
66410
66412
66418
66425
66431
66433
66449
66454
66455
66459
66460
66468
66476
66477
66478
66479
66481
66482
66488
66489
66496
66501
66503
66505
66506
66509
66510
66514
66516
66519
66521
66522
66524
66527
66529
66531
66541
66543
66550
66551
66553
66560
66564
66573
66575
66577
66582
66584
66587
66592
66602
66603
66606
66613
66614
66615
66619
66620
66626
66630
66636
66642
66646
66648
66649
66650
66651
66656
66657
66660
66666
66670
66672
66675
66679
66682
66695
66701
66706
66707
66710
66711
66722
66727
66729
66733
66738
66760
66776
66788
66791
66795
66798
66803
66805
66807
66814
66817
66820
66821
66829
66830
66831
66835
66837
66840
66851
66854
66856
66872
66874
66877
66881
66886
66887
66890
66915
66916
66917
66921
66922
66933
66942
66943
66948
66959
66962
66966
66968
66972
66974
66983
66986
67003
67005
67006
67007
67008
67010
67015
67017
67018
67019
67021
67030
67037
67045
67049
67052
67063
67066
67067
67072
67073
67074
67079
67081
67084
67091
67092
67094
67106
67107
67109
67124
67136
67141
67148
67153
67171
67172
67175
67196
67197
67223
67230
67231
67233
67236
67244
67259
67260
67261
67264
67282
67287
67290
67301
67305
67317
67318
67319
67320
67324
67326
67354
67359
67360
67365
67368
67369
67370
67372
67394
67395
67403
67414
67415
67423
67425
67433
67434
67435
67438
67441
67445
67446
67452
67466
67473
67480
67490
67504
67509
67512
67520
67522
67529
67530
67531
67532
67534
67538
67539
67553
67562
67564
67565
67571
67574
67576
67577
67581
67585
67593
67596
67600
67606
67611
67615
67619
67621
67625
67626
67630
67631
67637
67645
67647
67648
67664
67667
67670
67673
67674
67679
67681
67688
67691
67694
67695
67697
67701
67708
67710
67718
67721
67728
67738
67752
67756
67757
67765
67767
67773
67776
67780
67782
67797
67802
67803
67805
67807
67816
67817
67819
67820
67824
67830
67831
67839
67841
67842
67846
67849
67863
67865
67869
67878
67881
67902
67909
67912
67917
67940
67954
67959
67960
67972
67981
67984
67985
67994
67995
67999
68006
68022
68028
68030
68041
68055
68067
68070
68071
68073
68076
68084
68089
68097
68099
68100
68101
68103
68105
68108
68112
68119
68131
68151
68154
68155
68160
68162
68164
68165
68168
68169
68173
68184
68188
68193
68208
68209
68217
68220
68221
68224
68236
68241
68254
68268
68270
68275
68278
68282
68288
68292
68296
68297
68317
68318
68320
68326
68345
68346
68351
68358
68359
68367
68388
68393
68395
68414
68416
68419
68420
68421
68427
68431
68432
68446
68449
68456
68458
68459
68463
68465
68470
68482
68483
68499
68502
68521
68523
68526
68532
68549
68561
68570
68585
68586
68591
68592
68604
68620
68629
68638
68643
68646
68668
68672
68674
68687
68694
68696
68705
68706
68710
68723
68728
68730
68743
68745
68746
68747
68749
68751
68767
68775
68781
68783
68786
68795
68796
68802
68808
68815
68819
68826
68827
68828
68837
68839
68842
68857
68858
68861
68870
68876
68879
68880
68887
68889
68891
68897
68907
68915
68916
68918
68923
68934
68943
68945
68947
68959
68964
68966
68973
68977
68979
68981
68993
68997
68998
68999
69006
69007
69021
69041
69042
69044
69050
69053
69056
69058
69059
69063
69065
69070
69072
69073
69080
69086
69099
69108
69115
69117
69123
69126
69131
69154
69156
69162
69163
69169
69172
69173
69174
69179
69182
69185
69191
69196
69201
69202
69205
69209
69214
69215
69219
69220
69221
69225
69231
69233
69241
69245
69246
69251
69254
69255
69256
69260
69270
69278
69286
69291
69297
69301
69322
69327
69329
69335
69340
69342
69353
69355
69356
69379
69380
69381
69382
69398
69413
69415
69419
69420
69422
69424
69425
69427
69428
69432
69433
69436
69437
69438
69442
69449
69459
69465
69468
69510
69511
69521
69530
69534
69540
69542
69549
69557
69558
69568
69570
69574
69576
69579
69584
69590
69593
69598
69599
69600
69601
69602
69603
69605
69607
69610
69612
69620
69628
69630
69631
69635
69646
69666
69672
69681
69689
69702
69709
69710
69725
69733
69758
69769
69772
69777
69782
69799
69800
69804
69805
69807
69811
69817
69825
69834
69835
69836
69851
69857
69895
69897
69904
69921
69926
69929
69931
69933
69941
69943
69949
69959
69967
69979
69986
69991
69994
69997
[ 260 ]
35199
35200
35210
35334
35335
35340
39281
40243
40244
40407
40414
40418
40419
40431
40501
40528
40532
40533
40534
40535
40555
40603
40627
40683
40748
40766
40787
40791
40812
40824
40829
40833
40840
40848
40857
40869
40899
40913
40914
40930
40936
40941
40983
40994
41062
41395
41433
41442
41479
41539
41623
41628
41642
41682
41825
41829
41850
42088
42139
42140
42172
42192
42216
42222
42328
42394
42396
42409
42471
42515
42761
42811
42819
42997
43390
46118
46400
46409
46414
50140
50201
50235
50344
50413
50447
50462
50505
50507
50522
50539
50549
50558
50562
50565
50567
50582
50585
50588
50596
50619
50641
50644
50650
50681
50730
50777
50795
50797
50803
50805
50823
50855
50856
50858
50867
50881
50890
50905
50918
50929
50988
50989
51016
51017
51022
51024
51092
51109
51189
51407
51479
51503
51625
51679
51680
51719
51774
51789
51805
51817
51822
51825
51826
51879
51947
52248
52256
52667
52689
52780
52813
52815
52823
52824
52825
52830
52840
52858
52859
52863
52865
52871
52887
52908
52912
52922
52923
52926
52936
52939
52961
52964
52966
52967
52969
52983
52986
52987
52990
52995
53000
53001
53002
53003
53004
53006
53015
53017
53064
53085
53509
53686
53690
53801
53805
53860
53923
53942
53954
53981
53991
53999
54025
54065
54074
54082
54112
54157
54164
54165
54197
54321
54366
54383
54404
54405
54408
54429
54439
54441
54452
54500
54513
54515
54527
54600
54754
54756
54766
54881
54913
54937
54942
54989
55019
55035
55104
55129
55147
55151
55179
55180
55192
55205
55229
55292
55411
55430
55555
55559
55602
55607
55728
55754
55787
55825
55834
55855
55891
55978
56008
56069
56595
56612
56613
56717
56719
56732
56734
56735
56772
56898
56918
56972
57032
57038
57039
57048
57053
57059
57066
57071
57278
57331
57332
57346
57397
57418
57451
57452
57573
57664
57781
58205
58206
58211
58217
58331
58350
58412
58431
58466
58467
58480
58483
58504
58519
58550
58621
58650
58675
58719
58757
58818
58836
58840
58859
58885
58888
58889
58892
58917
58924
58968
59023
59043
59044
59079
59092
59099
59116
59141
59155
59161
59207
59232
59241
59258
59259
59315
59330
59344
59399
59465
59470
59480
59481
59486
59534
59586
59745
59758
59781
59797
59876
59947
60034
60094
60101
60107
60119
60132
60133
60141
60438
60479
60542
60650
60842
61022
61023
61024
61089
62009
62210
62257
62287
62321
62463
62466
62491
62585
62587
62596
62599
62689
62691
62706
62866
62955
63010
63071
63093
63165
63215
63227
63230
63233
63241
63277
63305
63439
63504
63511
63542
63546
63558
63592
63733
63792
63991
64118
64160
64337
64546
64617
64618
64804
64850
64916
64917
64920
65239
65259
65392
65414
65431
65520
65680
65716
65717
65886
65985
66047
66067
66118
66147
66171
66230
66270
66441
66442
66447
66490
66579
66623
66632
66703
66758
66765
66804
66879
66973
66997
67080
67111
67154
67174
67304
67322
67329
67475
67665
67715
67717
67800
67945
67958
68032
68135
68218
68426
68713
68766
68774
68780
68868
68881
68909
68929
68957
68985
69019
69210
69236
69621
69623
69746
69765
69796
[ 261 ]
32108
32425
32495
32510
32520
32539
32543
32653
32722
32734
34886
34913
34949
34968
34970
35185
35186
35188
35191
35192
35193
35197
35201
35208
35209
35211
35212
35213
35257
35265
35271
35284
35325
35344
35346
35354
35356
35368
35369
35383
35428
35429
35430
35431
35433
35435
36197
37988
39132
39236
39258
39263
39889
39890
40241
40245
40283
40299
40411
40428
40457
40498
40516
40518
40531
40556
40563
40580
40597
40598
40604
40605
40607
40698
40724
40744
40749
40754
40767
40777
40788
40847
40851
40856
40872
40873
40881
40912
40986
40993
41068
41147
41152
41214
41222
41226
41238
41240
41244
41310
41317
41318
41378
41384
41387
41417
41430
41461
41524
41597
41734
41790
41814
41817
41833
41857
41881
42027
42106
42109
42131
42134
42142
42143
42145
42151
42156
42158
42159
42160
42174
42181
42191
42197
42206
42212
42225
42235
42245
42255
42285
42407
42459
42464
42490
42649
42822
42914
42948
43301
43336
43395
43429
44069
44072
44364
44888
45027
46102
46279
46392
46393
46396
46401
46416
46421
46425
50421
50575
50576
50578
50602
50997
52963
52974
52976
52981
52985
52996
57274
58470
58517
59094
59102
[ 262 ]
2873
2901
2914
2916
2917
2925
2970
2971
2978
31524
32278
32307
32342
32354
32376
32378
32384
32390
32413
32429
32432
32433
32482
32550
32561
32619
32661
32682
32765
32766
32783
32811
32915
32918
32925
32926
32927
32932
32933
32973
32993
32995
33052
33059
33125
34879
34904
34908
34914
34923
34941
34955
34983
35008
35029
35086
35168
35173
35175
35177
35179
35180
35182
35184
35189
35194
35195
35196
35204
35226
35281
35282
35290
35291
35298
35308
35326
35371
35372
35401
35404
35425
35432
37253
37999
38228
39131
39160
39171
39229
39234
39257
39264
39265
39401
39409
39887
39891
39892
39894
39895
40217
40250
40276
40278
40567
40610
41115
41127
41343
41388
41393
41396
41422
41862
41935
42026
42030
42032
42037
42069
42105
42135
42150
42164
42203
42205
42226
42281
42372
43342
43421
43430
43440
43442
43482
43962
43972
44033
44041
44043
44070
44073
44074
44282
44289
44292
44316
44319
44329
44360
44361
44521
44825
44861
44867
44871
44873
44875
44894
44896
44897
44916
44963
44965
44966
44992
45011
45494
45496
45560
45581
45690
45714
45742
45807
45949
45983
46035
46095
46099
46101
46125
46128
46328
46335
46357
46378
46420
48178
49338
49801
52954
52973
[ 263 ]
2831
2833
2835
2866
2867
2868
2872
2876
2883
2887
2889
2890
2892
2897
2909
2912
2920
2922
2931
2934
2957
2964
2972
2975
2984
3000
3019
3021
3031
3041
3045
3050
3051
3052
3053
3058
3061
3071
3073
3074
3075
3109
3131
31666
32272
32306
32360
32382
32393
32395
32407
32549
32916
32917
32920
32940
32965
33007
33011
33030
33035
33056
33133
34985
35002
35039
35049
35064
35067
35112
35139
35149
35159
35283
35287
35297
35315
35316
35317
35321
35395
35398
39117
39119
39120
39121
39148
39170
39189
39191
39194
39209
39215
39242
39250
39255
39398
39404
40062
40135
40182
40247
40249
40252
40292
41332
41400
41452
41877
41886
41924
41950
41977
42024
43268
43460
43472
43477
43478
43481
43483
43484
43485
43538
43557
43589
43687
43696
43930
43952
43964
43967
43971
43976
43977
44037
44063
44065
44078
44283
44293
44537
44763
44770
44780
44787
44790
44816
44904
44983
44993
45021
45045
45079
45095
45339
45486
45495
45504
45506
45507
45552
45625
45635
45646
45724
45749
45754
45948
45958
45982
45992
46001
46011
46020
46045
46050
46058
46060
46073
46113
46127
46157
46329
46333
46338
46339
47525
47799
47803
47868
48162
48169
48700
48811
49279
49281
49299
49808
49862
49926
49942
49945
49951
49954
49957
49965
49994
[ 264 ]
2771
2801
2822
2824
2834
2846
2848
2851
2853
2854
2857
2859
2869
2878
2879
2885
2921
2940
2961
2963
2965
2969
2997
2998
2999
3018
3024
3028
3029
3032
3035
3037
3038
3043
3046
3056
3057
3079
3081
3103
3169
3178
32955
32956
38889
39102
39104
39109
39116
39146
39184
39193
39196
39213
39218
39222
39245
39252
39394
39416
40139
41889
41890
41932
41936
42059
43455
43461
43473
43490
43491
43492
43505
43544
43554
43564
43566
43568
43569
43573
43576
43577
43587
43590
43594
43596
43597
43598
43650
43689
43692
43695
43704
44296
44679
44691
44762
44765
44774
44777
44779
44797
44907
44910
44911
44984
45032
45059
45094
45350
45509
45519
45522
45612
45784
45787
45791
45798
45811
45959
45962
45977
45989
46038
46056
46067
46078
46130
47764
47805
47820
47851
47869
47907
48012
48180
48383
48570
48783
49328
49470
49515
49543
49566
49584
49590
49616
49888
49967
[ 265 ]
2778
2786
2789
2790
2805
2806
2814
2837
2849
2850
2886
2937
2953
2990
2991
2996
3023
3034
3044
39113
39179
39183
39208
39212
41875
41997
43496
43510
43542
43551
43563
43570
43586
43603
44356
44813
45129
45588
45838
45857
45886
45925
45933
46167
46450
47818
48297
49419
49461
49550
49588
49605
49649
49978
49984
[ 266 ]
2757
2759
2804
3004
3042
39200
39206
45899
45936
[ 267 ]
2730
2743
45330
[ 268 ]
2737
2758
[ 269 ]
2376
2696
[ 270 ]
2375
2378
[ 271 ]
2279
2295
2304
2381
[ 272 ]
2275
2277
[ 288 ]
61677
61726
[ 289 ]
61618
61629
61640
61669
61670
61671
61679
61681
61685
61690
61691
61695
61704
61723
61738
61739
61742
61745
61746
61751
61815
[ 290 ]
50037
50061
50114
50254
50345
50372
50374
50381
50391
50402
50407
50761
50922
50957
51055
51057
51060
51062
51119
51127
51145
51146
51198
51265
51430
51432
51518
51543
51551
51552
51613
51636
51895
51900
51989
52022
52024
52030
52107
52110
52113
52149
52194
52391
53048
53263
53306
53324
53330
53336
53364
53367
53368
53372
53373
53375
53377
53379
53386
53390
53407
53410
53411
53415
53433
53448
53457
53824
54093
54621
54662
54680
54698
54839
54902
54945
54959
54993
55022
55023
55416
55453
55454
55478
55483
55515
55691
55711
55713
55909
55954
56024
56131
56148
56152
56160
56177
56192
56246
56261
56314
56492
56748
56806
56808
57172
57221
57377
57426
57527
57551
57557
57629
57745
57762
57921
57937
58090
58204
58285
58730
59302
59459
60325
60367
60401
60459
60463
60464
60565
60580
60631
60635
60646
60660
60663
60678
60680
60686
60693
60695
60710
60715
60810
60816
60825
60867
60877
60930
60970
60986
61006
61114
61141
61145
61158
61160
61301
61343
61370
61395
61402
61408
61427
61429
61431
61432
61433
61434
61444
61445
61447
61451
61453
61459
61463
61467
61472
61497
61499
61502
61503
61538
61563
61567
61571
61574
61590
61594
61596
61610
61616
61625
61642
61720
61725
61733
61740
61755
61757
61776
61780
61807
61808
61816
61818
61819
61824
61825
61831
61840
61850
61851
61854
61923
61927
61936
61952
61993
62012
62014
62032
62036
62058
62068
62080
62105
62187
62190
62214
62223
62227
62238
62243
62292
62307
62324
62332
62344
62408
62445
62461
62468
62502
62699
62742
62763
62797
62801
62805
62821
62861
62949
63002
63030
63076
63087
63089
63100
63123
63195
63278
63328
63339
63404
63554
63575
63580
63585
63755
63759
63805
63833
63842
63846
63865
63868
63869
63895
63917
63933
63936
64016
64052
64054
64090
64184
64409
64838
64875
64886
64900
64926
64930
64977
65012
65017
65020
65071
65218
65243
65321
65529
65614
65644
65650
65667
65721
65773
65799
65913
65932
66140
66172
66236
66301
66525
66594
66609
66618
66768
66902
66975
66987
66988
67110
67129
67157
67214
67229
67393
67405
67408
67410
67649
67672
67785
67825
67828
67870
68110
68150
68293
68423
68541
68622
68760
68782
68825
68847
68883
68974
69008
69034
69071
69082
69124
69232
69283
69345
69385
69435
69529
69734
69808
69809
69839
69856
69867
69988
[ 291 ]
35332
35336
35339
37133
39277
39282
40420
40476
40480
40500
40508
40703
40718
40797
40801
41527
41542
41556
41566
46403
46404
46408
47294
47509
47510
50007
50008
50010
50013
50027
50040
50054
50058
50060
50066
50117
50137
50210
50212
50233
50240
50243
50248
50252
50253
50256
50290
50337
50343
50346
50378
50383
50385
50386
50389
50390
50392
50393
50397
50481
50493
50494
50496
50497
50500
50524
50544
50546
50568
50671
50672
50675
50677
50680
50684
50687
50693
50700
50703
50704
50707
50710
50720
50737
50760
50764
50771
50796
50801
50822
50837
50846
50859
50861
50863
50878
50892
50901
50907
50914
50931
50936
50938
50943
50949
50956
50959
50960
50961
50965
50969
50970
50971
50984
50990
50994
51000
51001
51002
51003
51007
51011
51028
51031
51037
51041
51045
51052
51058
51068
51085
51107
51115
51125
51129
51134
51135
51136
51137
51139
51144
51152
51153
51156
51165
51179
51194
51204
51283
51295
51313
51315
51321
51326
51331
51332
51333
51353
51364
51369
51371
51373
51387
51402
51403
51418
51427
51436
51437
51451
51453
51480
51482
51493
51494
51501
51504
51509
51519
51526
51527
51536
51540
51544
51545
51560
51562
51568
51569
51570
51574
51581
51585
51586
51587
51590
51605
51612
51614
51619
51620
51622
51632
51635
51647
51649
51652
51661
51670
51673
51688
51694
51710
51763
51773
51781
51786
51788
51808
51812
51824
51828
51830
51837
51844
51849
51856
51870
51874
51882
51883
51885
51886
51927
51955
51987
51988
51993
51998
52025
52029
52031
52032
52111
52117
52122
52126
52129
52176
52190
52241
52290
52434
52492
52493
52502
52579
52660
52665
52758
52779
52794
52804
52818
52832
52838
52839
52852
52879
52881
52883
52901
52909
52998
53023
53025
53059
53060
53094
53098
53103
53104
53120
53159
53167
53171
53189
53193
53200
53201
53204
53214
53215
53217
53221
53222
53300
53371
53405
53406
53430
53431
53443
53450
53466
53480
53481
53504
53523
53528
53565
53613
53662
53696
53697
53698
53700
53701
53706
53707
53708
53709
53710
53711
53727
53738
53740
53751
53768
53776
53799
53808
53813
53825
53829
53833
53834
53835
53839
53841
53842
53861
53888
53894
53896
53903
53909
53912
53915
53920
53924
53925
53931
53950
53951
53952
53956
53962
53973
53976
53983
53993
54004
54005
54054
54067
54077
54094
54124
54126
54135
54158
54167
54175
54221
54226
54235
54238
54258
54281
54294
54296
54308
54311
54318
54319
54335
54340
54343
54373
54375
54376
54378
54386
54391
54393
54399
54403
54411
54416
54454
54455
54461
54491
54498
54507
54512
54516
54518
54523
54529
54541
54545
54571
54587
54590
54593
54594
54595
54618
54630
54631
54636
54645
54646
54648
54651
54653
54663
54667
54673
54676
54677
54682
54686
54710
54758
54762
54763
54765
54802
54809
54814
54823
54825
54826
54829
54830
54831
54832
54846
54865
54869
54870
54871
54885
54886
54905
54906
54908
54909
54910
54911
54924
54927
54931
54932
54935
54936
54940
54944
54953
54954
54980
54986
55009
55024
55030
55037
55039
55040
55096
55127
55145
55165
55171
55193
55227
55236
55237
55252
55258
55267
55269
55270
55271
55273
55275
55276
55289
55316
55320
55367
55388
55394
55405
55417
55434
55443
55445
55447
55461
55474
55479
55488
55500
55502
55507
55508
55509
55524
55525
55531
55532
55535
55536
55544
55553
55566
55592
55604
55606
55608
55610
55620
55626
55628
55631
55637
55643
55645
55646
55647
55648
55651
55659
55699
55729
55731
55742
55743
55745
55752
55757
55763
55765
55766
55768
55781
55784
55788
55791
55809
55810
55819
55820
55826
55846
55852
55866
55867
55869
55875
55880
55882
55904
55928
55938
55961
56002
56010
56038
56039
56052
56060
56061
56066
56070
56071
56073
56109
56113
56118
56119
56121
56127
56128
56132
56144
56145
56159
56161
56162
56163
56167
56168
56179
56185
56187
56189
56194
56197
56202
56215
56221
56224
56242
56257
56263
56266
56274
56280
56294
56301
56308
56349
56362
56363
56483
56539
56558
56622
56633
56705
56715
56736
56749
56759
56760
56792
56797
56809
56830
56847
56897
57005
57012
57021
57041
57057
57062
57064
57072
57074
57077
57094
57095
57099
57114
57161
57198
57246
57267
57269
57296
57343
57345
57356
57391
57401
57414
57415
57447
57450
57460
57463
57466
57485
57490
57536
57548
57552
57579
57583
57614
57615
57623
57624
57626
57628
57630
57660
57665
57666
57674
57682
57686
57689
57690
57693
57697
57704
57709
57710
57711
57712
57713
57726
57729
57730
57732
57736
57748
57767
57771
57773
57774
57775
57777
57783
57787
57788
57794
57795
57797
57798
57799
57806
57808
57813
57822
57824
57869
58061
58161
58166
58200
58216
58220
58245
58333
58346
58358
58399
58403
58405
58424
58435
58566
58591
58606
58607
58618
58647
58682
58684
58693
58698
58700
58761
58779
58794
58795
58804
58806
58808
58813
58819
58823
58824
58848
58875
58876
58897
58905
58906
58925
58945
58953
58970
58971
58976
58978
58979
58990
58997
59077
59086
59098
59228
59257
59265
59286
59292
59335
59338
59343
59351
59400
59406
59416
59421
59446
59454
59462
59472
59479
59487
59492
59531
59536
59575
59582
59606
59642
59682
59692
59777
59792
59811
59816
59821
59847
59855
59857
59861
59865
59905
59932
59950
59983
60076
60087
60131
60165
60170
60249
60274
60315
60330
60333
60334
60336
60350
60353
60360
60368
60377
60378
60381
60386
60393
60410
60424
60426
60434
60439
60445
60446
60453
60458
60469
60476
60483
60486
60498
60499
60514
60515
60516
60523
60527
60528
60541
60545
60551
60562
60570
60571
60573
60584
60597
60599
60627
60638
60641
60647
60649
60665
60674
60677
60679
60768
60773
60815
60822
60854
60856
60858
60862
60870
60874
60879
60882
60885
60892
60903
60911
60918
60922
60925
60934
60944
60948
60960
60963
60964
60982
60997
61008
61011
61012
61014
61016
61026
61031
61032
61034
61038
61051
61054
61083
61084
61093
61110
61112
61113
61120
61126
61128
61133
61142
61147
61151
61159
61179
61181
61199
61200
61201
61210
61216
61223
61238
61242
61243
61250
61255
61262
61292
61295
61299
61302
61348
61368
61415
61416
61424
61441
61448
61464
61477
61479
61490
61493
61715
61760
61761
61762
61764
61770
61774
61783
61785
61798
61801
61802
61806
61837
61847
61848
61849
61871
61882
61884
61887
61925
61926
61933
61944
61949
61953
61961
61966
61968
61971
61980
61981
61982
61983
61986
61992
61994
61997
61998
62001
62002
62018
62030
62034
62037
62038
62041
62047
62048
62051
62055
62061
62065
62070
62072
62078
62109
62141
62144
62147
62161
62162
62163
62172
62173
62174
62179
62185
62186
62195
62198
62204
62205
62207
62234
62235
62240
62245
62246
62249
62256
62258
62260
62263
62278
62282
62283
62293
62295
62297
62298
62299
62300
62302
62309
62312
62313
62314
62318
62319
62323
62325
62354
62355
62360
62363
62366
62368
62374
62375
62379
62399
62406
62413
62414
62415
62421
62422
62438
62439
62440
62444
62456
62457
62460
62465
62471
62474
62475
62476
62477
62478
62484
62494
62510
62513
62525
62526
62531
62536
62550
62555
62558
62559
62562
62564
62578
62586
62594
62598
62606
62613
62617
62620
62623
62627
62633
62636
62643
62644
62645
62649
62650
62652
62657
62672
62683
62700
62704
62709
62714
62717
62724
62730
62732
62736
62739
62741
62749
62750
62762
62774
62784
62785
62799
62814
62823
62839
62850
62891
62897
62915
62921
62923
62925
62930
62931
62933
62935
62938
62942
62946
62947
62950
62951
62953
62956
62964
62995
62996
62999
63000
63001
63003
63015
63026
63027
63032
63036
63037
63049
63050
63053
63055
63060
63062
63063
63069
63077
63078
63081
63086
63119
63135
63138
63139
63142
63146
63149
63154
63162
63166
63171
63175
63176
63179
63191
63192
63194
63196
63197
63202
63213
63220
63229
63231
63238
63244
63247
63264
63265
63284
63288
63292
63293
63300
63303
63318
63323
63324
63332
63334
63335
63337
63343
63344
63347
63356
63358
63362
63368
63379
63391
63399
63405
63413
63419
63426
63431
63433
63452
63462
63475
63490
63495
63501
63502
63503
63508
63520
63534
63538
63539
63541
63559
63560
63562
63574
63582
63588
63590
63598
63631
63637
63638
63640
63647
63648
63649
63655
63658
63685
63686
63687
63699
63706
63707
63730
63731
63737
63775
63790
63798
63802
63810
63811
63814
63815
63817
63820
63824
63845
63857
63866
63873
63876
63878
63881
63882
63887
63889
63890
63892
63893
63894
63898
63900
63901
63905
63906
63912
63914
63915
63916
63918
63932
63943
63949
63955
63974
63985
63986
63988
63989
64006
64008
64010
64015
64017
64018
64019
64022
64025
64027
64028
64031
64034
64037
64041
64044
64045
64056
64060
64061
64065
64066
64067
64071
64079
64081
64084
64088
64089
64094
64098
64106
64137
64235
64316
64323
64346
64357
64359
64382
64404
64438
64444
64451
64452
64454
64462
64492
64548
64611
64638
64675
64735
64741
64780
64791
64795
64835
64837
64842
64845
64847
64861
64863
64866
64873
64874
64878
64891
64896
64897
64902
64904
64911
64921
64928
64935
64936
64941
64943
64947
64949
64962
64964
64970
64971
64980
64982
64997
65000
65015
65026
65036
65051
65059
65063
65064
65066
65079
65094
65098
65106
65125
65130
65131
65140
65147
65180
65182
65188
65195
65197
65208
65225
65230
65232
65238
65263
65264
65328
65331
65332
65344
65347
65376
65381
65388
65397
65404
65405
65418
65421
65452
65474
65483
65488
65490
65492
65496
65498
65507
65519
65523
65530
65531
65534
65561
65566
65631
65635
65638
65639
65656
65658
65660
65672
65674
65689
65691
65727
65782
65786
65803
65806
65814
65817
65820
65838
65839
65849
65850
65853
65866
65868
65872
65876
65878
65889
65917
65924
65926
65935
65957
65963
65966
65967
65969
66011
66017
66054
66062
66068
66072
66075
66076
66080
66088
66089
66090
66101
66102
66122
66128
66135
66159
66162
66167
66207
66210
66211
66223
66231
66260
66264
66275
66296
66328
66329
66334
66340
66342
66346
66355
66365
66366
66400
66423
66436
66439
66445
66451
66456
66461
66463
66465
66469
66470
66480
66485
66497
66507
66511
66517
66532
66542
66546
66554
66566
66610
66616
66624
66633
66643
66652
66664
66671
66686
66692
66697
66735
66806
66826
66839
66846
66852
66875
66882
66885
66891
66897
66900
66901
66907
66927
66931
66967
66984
67004
67009
67041
67054
67076
67077
67093
67132
67133
67144
67166
67186
67207
67220
67235
67237
67243
67313
67351
67371
67379
67398
67404
67407
67411
67419
67443
67458
67472
67501
67502
67503
67518
67521
67525
67540
67541
67568
67587
67588
67592
67607
67618
67622
67632
67643
67651
67666
67671
67700
67705
67713
67743
67771
67774
67777
67786
67794
67806
67809
67813
67832
67889
67913
67929
67947
67962
67971
67974
67983
67989
67992
68009
68013
68065
68138
68142
68161
68181
68222
68237
68311
68325
68386
68411
68442
68448
68454
68455
68457
68464
68466
68552
68593
68603
68623
68632
68704
68720
68722
68740
68750
68758
68787
68797
68801
68805
68831
68840
68841
68853
68863
68884
68885
68892
68900
68921
68946
68953
68956
68968
68972
68976
68982
68987
69000
69003
69004
69026
69028
69031
69037
69040
69045
69057
69061
69087
69110
69159
69170
69197
69198
69203
69206
69207
69211
69212
69213
69216
69218
69228
69234
69235
69238
69239
69240
69248
69249
69253
69258
69273
69280
69281
69319
69330
69359
69401
69410
69414
69443
69453
69469
69471
69509
69519
69533
69537
69551
69569
69587
69591
69592
69595
69596
69597
69604
69618
69701
69704
69759
69818
69826
69838
69843
69845
69858
69860
69903
69974
69981
69989
[ 292 ]
31245
32114
32155
34841
34844
34850
34854
34865
34870
35250
35251
35252
35253
35254
35255
35256
35260
35331
35338
35343
35352
35387
35389
36297
36305
36396
36589
36937
37081
37085
37089
37097
37239
37303
37486
37867
37959
37970
38010
38018
38112
38113
38114
38128
38153
38155
38156
38158
38399
40230
40232
40240
40242
40310
40321
40385
40386
40396
40399
40400
40401
40404
40405
40406
40408
40410
40412
40413
40417
40422
40424
40432
40434
40442
40444
40449
40451
40453
40472
40479
40493
40504
40507
40511
40513
40514
40521
40540
40541
40542
40551
40557
40562
40568
40575
40576
40577
40581
40602
40608
40609
40615
40617
40620
40626
40633
40637
40661
40663
40681
40686
40687
40688
40694
40695
40706
40707
40708
40709
40710
40715
40719
40720
40722
40740
40743
40746
40747
40753
40757
40760
40761
40764
40768
40778
40785
40790
40798
40800
40804
40809
40810
40816
40820
40821
40828
40831
40834
40836
40838
40839
40842
40845
40846
40849
40852
40854
40859
40863
40865
40878
40889
40890
40891
40892
40895
40896
40898
40906
40909
40916
40918
40920
40926
40927
40929
40933
40940
40955
40956
40964
40965
40969
40971
40972
40976
40977
40982
40984
40985
40987
40992
41006
41012
41015
41027
41034
41045
41060
41064
41079
41108
41117
41153
41192
41194
41203
41205
41283
41288
41312
41392
41458
41459
41463
41489
41504
41514
41518
41519
41543
41545
41546
41550
41552
41560
41561
41564
41565
41573
41574
41575
41576
41580
41586
41590
41611
41619
41622
41629
41639
41641
41643
41656
41658
41662
41669
41670
41674
41675
41677
41679
41680
41700
41704
41727
41730
41742
41756
41760
41774
41776
41783
41789
41798
41808
41809
41816
41818
41820
41826
41830
41831
41836
41837
41839
41841
41842
41849
41851
41852
41858
41859
42086
42125
42133
42144
42157
42169
42182
42185
42213
42214
42240
42241
42332
42333
42395
42398
42399
42402
42404
42431
42432
42433
42452
42455
42470
42476
42493
42496
42497
42506
42510
42512
42516
42518
42538
42539
42544
42552
42554
42566
42573
42580
42586
42593
42594
42599
42657
42663
42665
42668
42674
42679
42689
42698
42708
42728
42736
42739
42741
42744
42745
42760
42770
42776
42792
42793
42794
42800
42813
42816
42823
42835
42839
42845
42846
42847
42858
42921
42998
43108
43142
43149
43157
43172
43389
43393
46304
46305
46394
46407
46415
47257
47330
47331
50016
50053
50078
50098
50129
50130
50138
50139
50141
50236
50257
50258
50338
50512
50535
50543
50550
50573
50580
50581
50586
50592
50678
50697
50807
50820
50821
50883
50903
50904
50912
50915
50975
51015
51018
51019
51020
51021
51042
51118
51212
51251
51350
51466
51476
51491
51508
51523
51627
51686
51761
51769
51783
51797
51848
51854
51880
51954
52581
52796
52828
52844
52857
52869
52876
52910
52913
52945
52965
52978
52989
52992
52994
53007
53425
53505
53789
53845
53882
53901
53998
54007
54030
54066
54246
54249
54277
54298
54332
54350
54367
54678
54856
54926
55033
55159
55567
55598
55600
55613
55750
55777
55790
56001
56048
56115
56300
56724
56910
57011
57049
57261
57270
57461
57464
57489
57634
58171
58199
58562
58576
58835
58853
58974
58996
59048
59264
59468
59483
59484
59485
59580
59625
59738
59747
60100
60161
60380
60741
60910
61020
61035
61040
61042
61156
61217
61220
61224
61236
61987
62224
62274
62359
62529
62538
62546
62577
62604
62616
62681
62712
62922
62926
62927
62962
63097
63136
63160
63189
63228
63245
63454
63553
63641
63645
63684
63952
64014
64033
64530
64786
64840
64881
65061
65114
65278
65476
65494
65501
65521
65556
65634
65699
65815
66021
66362
66629
67350
67374
67401
67633
67973
68175
68301
68302
68480
68582
68608
68610
68612
69033
69200
69222
69615
69684
69760
[ 293 ]
31217
31218
31219
32124
32135
32141
32178
32183
32348
32457
32513
32524
32525
32534
32545
32556
32558
32559
32563
32567
32613
32614
32618
32621
32637
32641
32642
32647
32652
32655
32656
32672
32673
32678
32679
32683
32684
32694
32702
32707
32709
32711
32719
32721
32729
32731
32736
32767
32769
32775
32796
32815
32823
32828
32832
32842
32845
32850
32862
32979
32983
32985
32986
32987
32994
33515
33960
34310
34317
34835
34838
34839
34883
34884
34891
34894
34898
34912
34915
34937
34939
34951
34973
34974
34989
34991
34995
34998
34999
35000
35005
35030
35057
35098
35125
35190
35198
35202
35207
35228
35233
35262
35263
35264
35275
35276
35277
35322
35345
35353
35373
35381
35384
35388
35420
35423
36151
36154
36168
36213
36224
36306
36309
36321
36514
37093
37127
37150
37237
37688
37719
38011
38012
38086
38088
38101
38103
38125
38127
38133
38134
38140
38176
38177
38182
38304
38332
38384
38402
38426
39129
39878
39885
39888
39929
40231
40233
40238
40270
40275
40281
40300
40305
40306
40327
40328
40329
40344
40345
40346
40348
40349
40373
40384
40387
40388
40390
40395
40397
40409
40415
40416
40427
40429
40443
40450
40454
40460
40461
40462
40463
40469
40470
40474
40478
40489
40490
40494
40497
40499
40506
40509
40510
40520
40522
40523
40525
40526
40527
40536
40538
40546
40548
40552
40553
40554
40558
40561
40564
40573
40578
40583
40588
40599
40600
40601
40612
40618
40623
40624
40636
40639
40653
40656
40662
40669
40670
40671
40689
40693
40697
40705
40732
40735
40736
40741
40750
40756
40758
40759
40765
40771
40779
40780
40781
40784
40794
40795
40799
40805
40806
40807
40808
40817
40822
40823
40826
40827
40843
40844
40850
40855
40858
40862
40871
40875
40877
40879
40880
40882
40883
40886
40897
40900
40904
40905
40910
40911
40915
40921
40923
40942
40959
40962
40966
40975
40978
40988
40990
41001
41002
41004
41011
41017
41028
41029
41030
41031
41032
41033
41038
41040
41048
41049
41053
41054
41055
41056
41063
41065
41098
41100
41102
41104
41107
41113
41114
41120
41124
41125
41129
41140
41151
41154
41158
41159
41186
41189
41190
41196
41200
41207
41208
41209
41211
41212
41219
41220
41223
41224
41228
41229
41260
41266
41268
41273
41274
41275
41281
41287
41289
41307
41323
41342
41344
41357
41370
41371
41380
41389
41390
41391
41404
41409
41410
41415
41418
41428
41431
41432
41434
41437
41439
41440
41443
41448
41455
41456
41457
41465
41467
41470
41473
41485
41487
41500
41523
41532
41536
41541
41559
41587
41592
41605
41608
41610
41618
41620
41646
41647
41651
41659
41688
41707
41720
41735
41763
41767
41768
41770
41771
41784
41787
41791
41804
41805
41810
41811
41812
41819
41821
41822
41823
41834
41840
41845
41848
41853
41854
41855
41856
42004
42033
42084
42085
42087
42089
42091
42093
42096
42108
42110
42111
42118
42124
42127
42129
42130
42132
42137
42141
42146
42149
42154
42155
42162
42168
42175
42178
42180
42183
42184
42189
42190
42193
42194
42198
42200
42201
42209
42220
42224
42227
42228
42229
42230
42232
42233
42236
42249
42250
42253
42259
42260
42263
42268
42269
42276
42278
42280
42282
42287
42313
42320
42327
42352
42356
42370
42392
42401
42406
42463
42469
42475
42514
42572
42578
42591
42595
42596
42597
42600
42610
42612
42613
42656
42658
42659
42666
42670
42672
42682
42683
42691
42693
42696
42714
42720
42735
42759
42777
42786
42808
42812
42814
42815
42820
42821
42824
42830
42854
42867
42885
42887
42901
42910
42911
42913
42915
42919
42929
42945
42970
42971
42972
42982
42984
42985
42995
42999
43015
43030
43031
43083
43106
43110
43112
43130
43134
43141
43146
43151
43155
43262
43309
43314
43335
43338
43369
43394
43423
43424
43426
43427
44030
44034
44035
44071
44226
44372
44374
44375
44449
44454
44513
44782
44859
44881
44882
44885
44891
44892
44934
44936
44937
44990
45490
45491
45579
45632
45678
46115
46287
46307
46322
46324
46330
46365
46386
46388
46412
46413
46417
46418
46427
46429
46430
46433
46522
46622
46626
46803
46811
46820
46824
46864
46867
46931
47507
47513
50560
50902
52940
52941
52950
52953
52955
52970
54028
64918
[ 294 ]
2915
3115
3132
8721
28921
31070
31185
31216
31224
31225
31238
31244
31518
31519
31674
32106
32219
32239
32243
32247
32279
32302
32311
32312
32313
32320
32329
32330
32331
32356
32375
32377
32379
32383
32391
32399
32400
32401
32411
32417
32420
32421
32422
32423
32424
32426
32427
32430
32434
32437
32438
32439
32440
32451
32453
32455
32459
32460
32470
32475
32479
32481
32483
32484
32485
32489
32490
32492
32494
32499
32500
32505
32506
32511
32516
32531
32533
32540
32541
32560
32608
32610
32611
32615
32616
32632
32635
32636
32640
32643
32646
32651
32654
32658
32660
32662
32663
32664
32665
32666
32676
32686
32687
32688
32689
32692
32693
32696
32697
32698
32700
32701
32712
32717
32720
32726
32727
32728
32776
32794
32813
32814
32816
32817
32826
32827
32830
32833
32834
32835
32844
32846
32847
32848
32851
32863
32913
32930
32936
32939
32967
32969
32970
32972
32974
32975
32976
32981
32988
32989
32996
32997
33032
33037
33042
33047
33057
33194
33242
33300
33301
33334
33384
33548
34138
34306
34801
34830
34873
34875
34878
34880
34881
34882
34887
34889
34892
34897
34906
34925
34928
34930
34934
34935
34936
34940
34942
34947
34948
34950
34952
34956
34958
34967
34971
34975
34979
34987
34988
34990
34993
35001
35003
35023
35028
35037
35038
35040
35046
35050
35055
35056
35070
35073
35082
35092
35093
35100
35110
35140
35154
35170
35178
35181
35183
35187
35203
35206
35221
35232
35274
35280
35286
35288
35292
35327
35347
35391
35399
35411
35415
35841
36206
37539
37750
37985
37986
37987
38095
38132
38171
38174
38187
38216
38226
38227
38282
38333
38377
38446
38456
38457
39130
39153
39158
39162
39163
39166
39235
39239
39241
39243
39244
39253
39262
39272
39275
39386
39402
39403
39412
39668
39880
39884
39886
39893
39896
39926
39934
40051
40060
40061
40180
40181
40189
40221
40257
40260
40263
40267
40268
40277
40279
40282
40284
40288
40289
40294
40295
40296
40297
40304
40330
40350
40352
40355
40359
40360
40365
40366
40371
40377
40379
40524
40537
40867
41014
41075
41083
41087
41090
41092
41099
41213
41217
41231
41299
41300
41302
41305
41306
41316
41324
41327
41330
41334
41337
41345
41348
41349
41350
41351
41359
41369
41372
41376
41379
41381
41382
41383
41385
41386
41394
41399
41411
41419
41420
41423
41425
41426
41427
41447
41460
41600
41606
41815
41860
41920
41942
41946
41948
41972
41985
42003
42005
42021
42029
42031
42034
42035
42041
42049
42054
42058
42062
42065
42066
42072
42073
42082
42083
42098
42102
42104
42120
42122
42136
42153
42177
42195
42210
42221
42234
42256
42257
42262
42264
42265
42273
42290
42294
42344
42346
42349
42362
42368
42369
42371
42373
42374
42381
42383
42384
42386
42978
43115
43119
43122
43126
43132
43159
43197
43214
43251
43278
43286
43304
43307
43339
43360
43361
43373
43377
43396
43399
43400
43401
43405
43413
43428
43431
43441
43444
43445
43447
43451
43458
43479
43501
43730
43974
43978
44031
44032
44040
44045
44066
44067
44161
44169
44182
44194
44200
44275
44285
44295
44311
44320
44328
44362
44363
44365
44366
44370
44371
44373
44463
44507
44508
44522
44617
44675
44707
44722
44730
44733
44734
44750
44821
44822
44826
44827
44840
44855
44860
44862
44863
44868
44872
44876
44877
44878
44879
44884
44890
44915
44920
44923
44943
44944
44953
44955
44959
44975
44978
44991
44994
45006
45008
45009
45010
45070
45080
45096
45124
45126
45487
45493
45512
45540
45548
45557
45559
45561
45562
45565
45621
45633
45641
45668
45679
45680
45681
45683
45685
45686
45687
45689
45701
45706
45707
45709
45712
45713
45743
45748
45750
45785
45806
45808
45946
45947
45950
45952
45960
46008
46019
46031
46032
46042
46044
46072
46077
46087
46114
46119
46120
46124
46140
46141
46144
46158
46159
46160
46262
46277
46303
46308
46310
46311
46326
46331
46334
46337
46340
46341
46342
46347
46349
46362
46370
46373
46377
46384
46387
46391
46419
46422
46423
46437
46462
46469
46474
46517
46521
46525
46551
46559
46560
46566
46574
46618
46651
46654
46669
46671
46683
46708
46731
46750
46791
46794
46815
46817
46825
46826
46847
46848
46854
46937
46976
47615
47792
47793
47835
47977
48146
48147
48152
48160
48172
48175
48176
48427
48970
49254
49344
49656
49713
49800
49812
49813
49838
49894
49907
49914
49998
49999
52949
52951
53008
[ 295 ]
2871
2874
2875
2902
2918
2919
2924
2930
2932
2933
2935
2936
2955
2962
2976
2982
3012
3014
3015
3017
3020
3047
3055
3059
3062
3063
3064
3065
3070
3076
3088
3089
3095
3096
3113
3114
3120
3121
3126
3128
3129
3134
3135
3145
3146
3183
3206
28940
28942
28946
28947
31243
31301
31650
31652
31653
31654
31673
32104
32105
32204
32223
32240
32256
32257
32269
32275
32285
32286
32290
32292
32294
32295
32296
32303
32305
32308
32309
32310
32314
32317
32319
32323
32340
32359
32362
32363
32364
32367
32370
32371
32380
32388
32389
32397
32402
32403
32404
32405
32406
32414
32418
32449
32452
32480
32562
32923
32924
32935
32937
32941
32944
32945
32954
32957
32959
32961
32962
32963
32964
33006
33008
33010
33015
33018
33019
33021
33023
33024
33027
33038
33049
33050
33053
33058
33060
33061
33065
33066
33067
33086
33090
33130
33131
33167
33244
33257
33337
33344
33383
33395
33529
33530
33551
33563
33564
33571
33573
33578
33582
33588
33602
34794
34802
34822
34824
34828
34874
34877
34899
34917
34918
34927
34931
34938
34954
34957
34966
34996
35007
35012
35016
35019
35027
35036
35051
35084
35085
35095
35121
35131
35137
35142
35146
35167
35169
35171
35172
35289
35294
35296
35299
35301
35303
35305
35312
35318
35407
38024
38186
38222
38229
38884
38885
39100
39122
39126
39137
39144
39152
39159
39167
39172
39195
39246
39248
39249
39399
39400
39407
39410
39418
39577
39593
39634
39638
39647
39749
39793
39897
39903
39921
39922
39925
40053
40126
40134
40140
40141
40142
40149
40154
40157
40193
40197
40198
40253
40254
40265
40280
40293
40298
40333
40353
40358
40380
41095
41353
41354
41402
41403
41412
41424
41598
41599
41866
41867
41870
41873
41876
41880
41884
41885
41899
41903
41904
41908
41909
41910
41913
41914
41915
41919
41921
41923
41928
41931
41939
41940
41941
41943
41945
41947
41949
41951
41952
41953
41958
41960
41968
41979
41981
41983
41988
41991
42036
42043
42044
42045
42057
42064
42114
42121
42343
42358
43178
43179
43194
43209
43242
43243
43244
43256
43264
43267
43269
43296
43298
43302
43311
43321
43322
43323
43324
43326
43341
43351
43354
43355
43367
43398
43403
43406
43407
43408
43412
43418
43446
43449
43452
43462
43464
43465
43470
43475
43476
43487
43512
43516
43535
43536
43539
43540
43559
43562
43572
43578
43584
43601
43604
43612
43621
43632
43633
43642
43670
43685
43710
43727
43731
43734
43745
43749
43888
43893
43897
43921
43933
43946
43947
43950
43957
43969
43975
43979
43980
43982
43991
44006
44013
44015
44024
44028
44060
44062
44064
44075
44085
44086
44103
44189
44201
44221
44243
44270
44273
44274
44280
44284
44286
44288
44294
44297
44298
44302
44309
44314
44334
44391
44392
44396
44418
44420
44446
44490
44531
44540
44554
44561
44569
44570
44575
44581
44591
44594
44600
44609
44612
44615
44629
44652
44656
44659
44666
44668
44674
44678
44680
44682
44696
44709
44714
44715
44717
44718
44729
44732
44737
44738
44739
44745
44761
44769
44771
44781
44784
44785
44799
44828
44829
44831
44832
44834
44835
44836
44844
44893
44898
44899
44900
44919
44926
44957
44960
44961
44980
44981
44982
44985
44986
44989
44995
45000
45003
45024
45025
45036
45039
45043
45044
45050
45072
45081
45085
45097
45098
45102
45118
45134
45136
45356
45366
45397
45437
45483
45484
45485
45492
45498
45501
45508
45511
45515
45517
45520
45523
45524
45525
45526
45539
45541
45555
45556
45563
45566
45570
45572
45573
45578
45583
45619
45620
45622
45623
45634
45643
45645
45647
45648
45650
45653
45666
45684
45688
45696
45698
45702
45705
45708
45715
45716
45720
45722
45725
45726
45728
45729
45731
45732
45733
45734
45736
45740
45741
45744
45746
45747
45752
45753
45758
45761
45762
45764
45766
45783
45786
45796
45799
45801
45803
45804
45805
45809
45810
45822
45829
45866
45882
45883
45922
45951
45957
45963
45979
45986
45987
45990
45991
45998
46002
46003
46004
46009
46012
46013
46015
46018
46036
46040
46043
46046
46049
46052
46059
46063
46064
46070
46074
46075
46076
46088
46089
46094
46100
46104
46106
46107
46108
46121
46129
46134
46135
46137
46138
46145
46148
46152
46153
46183
46195
46203
46204
46212
46214
46220
46222
46240
46258
46320
46346
46348
46350
46353
46359
46376
46382
46439
46443
46444
46454
46461
46503
46561
46711
46727
46745
46746
46771
46789
46802
46886
46893
46896
46897
46901
46902
46972
47611
47612
47613
47614
47633
47704
47794
47801
47807
47815
47816
47827
47831
47832
47833
47834
47846
47859
47861
47883
47887
47891
47898
47900
47924
47928
47938
47953
47967
47973
47980
47981
47985
47994
48141
48148
48149
48154
48174
48177
48187
48233
48341
48342
48344
48345
48346
48349
48350
48377
48378
48389
48390
48395
48400
48404
48440
48475
48480
48481
48482
48484
48497
48502
48506
48507
48508
48511
48522
48525
48528
48544
48579
48580
48589
48697
48769
48773
48812
48969
49037
49182
49208
49224
49235
49243
49245
49255
49259
49260
49261
49266
49269
49275
49278
49293
49297
49334
49379
49384
49395
49396
49402
49465
49486
49505
49510
49513
49514
49537
49538
49539
49583
49586
49621
49623
49657
49664
49684
49698
49703
49710
49733
49737
49747
49755
49793
49797
49798
49802
49804
49806
49815
49816
49817
49829
49843
49855
49861
49874
49876
49879
49891
49904
49905
49912
49924
49929
49932
49943
49944
49949
49952
49956
49958
49964
49974
49975
49979
49980
49981
49988
49990
49991
49992
49993
49995
49996
49997
[ 296 ]
2870
2928
2943
2944
2947
2951
2956
2960
2968
2992
2993
3005
3016
3026
3027
3049
3067
3080
3084
3085
3087
3090
3091
3100
3107
3136
3161
3162
3163
3184
3186
27314
27351
31210
31648
31649
31651
32266
32274
32281
32304
32365
32914
32921
32942
32943
32951
32958
32960
33004
33005
33518
33527
34817
34831
35013
35014
35017
35018
35025
35295
35300
35394
37574
38890
38891
38892
38895
38897
39099
39114
39118
39141
39173
39177
39181
39188
39192
39199
39201
39393
39397
39405
39720
39759
39760
39769
39773
40136
40138
40153
41871
41878
41887
41893
41898
41907
41926
41927
41929
41938
41955
41963
41966
41970
41974
41975
41980
41982
41992
41995
42002
43237
43409
43454
43467
43468
43474
43500
43504
43506
43511
43514
43517
43553
43556
43561
43565
43574
43575
43579
43581
43582
43583
43588
43592
43595
43599
43600
43605
43614
43616
43618
43622
43625
43626
43627
43628
43629
43631
43639
43643
43645
43652
43654
43657
43658
43661
43662
43664
43679
43681
43682
43683
43684
43686
43688
43691
43698
43700
43702
43705
43709
43712
43714
43725
43726
43747
43751
43767
43770
43774
43825
43868
43898
43931
43932
43951
43953
43954
43955
43961
43965
43984
43999
44007
44008
44011
44012
44014
44029
44036
44039
44058
44061
44081
44141
44212
44241
44247
44258
44272
44279
44281
44332
44348
44353
44358
44359
44534
44551
44558
44560
44565
44567
44568
44571
44572
44574
44631
44639
44645
44647
44648
44651
44670
44671
44672
44677
44690
44692
44713
44725
44727
44756
44764
44768
44776
44778
44788
44789
44795
44796
44801
44802
44803
44817
44818
44849
44908
44909
44912
44913
44914
44967
44987
44999
45022
45038
45040
45042
45046
45065
45073
45078
45084
45087
45093
45222
45255
45283
45343
45396
45408
45417
45439
45446
45454
45457
45466
45473
45480
45488
45505
45510
45516
45518
45534
45536
45537
45538
45550
45551
45568
45569
45571
45577
45587
45601
45609
45614
45616
45618
45630
45638
45651
45663
45671
45673
45700
45757
45760
45771
45774
45780
45788
45789
45790
45793
45797
45802
45813
45815
45825
45826
45828
45832
45833
45840
45845
45849
45864
45867
45872
45890
45891
45892
45893
45894
45904
45908
45929
45953
45954
45966
45968
45972
45981
45993
45994
46037
46048
46057
46068
46069
46071
46080
46083
46131
46146
46163
46166
46176
46181
46184
46187
46191
46199
46200
46211
46219
46232
46252
46255
46381
46442
46449
46456
46457
46501
46721
46766
46767
46781
46881
46889
46941
47526
47539
47609
47637
47693
47726
47729
47733
47775
47796
47797
47800
47802
47804
47806
47814
47819
47855
47863
47866
47870
47888
47903
47943
47974
47993
48009
48010
48030
48073
48119
48142
48143
48145
48155
48158
48161
48163
48165
48173
48182
48183
48186
48195
48197
48200
48223
48231
48258
48266
48272
48319
48333
48336
48352
48353
48391
48394
48398
48422
48455
48466
48471
48473
48479
48512
48517
48569
48574
48603
48607
48611
48621
48625
48628
48688
48694
48709
48720
48759
48767
48768
48775
48776
48778
48786
48799
48803
48829
48831
48833
48841
48850
48929
49019
49047
49161
49195
49196
49211
49220
49226
49229
49230
49236
49258
49280
49288
49289
49296
49300
49306
49309
49311
49312
49313
49316
49318
49320
49321
49322
49327
49337
49352
49353
49354
49355
49363
49366
49386
49388
49390
49394
49411
49415
49420
49421
49429
49443
49471
49472
49476
49477
49478
49479
49483
49484
49485
49487
49488
49489
49504
49509
49511
49552
49554
49563
49564
49565
49569
49573
49576
49580
49581
49585
49587
49600
49609
49610
49615
49619
49624
49625
49636
49642
49654
49658
49659
49668
49677
49712
49726
49734
49736
49787
49794
49807
49818
49830
49869
49890
49899
49959
49968
49969
49970
49972
49986
49987
52943
[ 297 ]
2812
2839
2844
2847
2938
2939
2941
2988
3007
3022
3025
3030
3083
3102
3204
39108
39115
39178
39180
39204
39205
39207
39395
39601
41897
41912
43486
43488
43507
43508
43523
43530
43537
43548
43552
43567
43630
43653
43660
43677
43693
43694
43706
43707
43782
43785
43852
43858
44016
44553
44794
44798
44996
45002
45004
45031
45034
45035
45109
45131
45143
45156
45168
45217
45226
45243
45247
45252
45254
45276
45304
45335
45340
45361
45404
45405
45468
45470
45477
45553
45576
45600
45607
45772
45814
45816
45817
45818
45834
45835
45836
45837
45841
45844
45846
45850
45852
45865
45870
45873
45874
45881
45897
45900
45905
45909
45910
45912
45913
45919
45924
45926
45930
45932
45935
45941
45944
45964
45965
45969
45984
45985
46051
46151
46169
46171
46185
46189
46234
46236
46253
46875
46882
46883
47557
47728
47732
47738
47774
47781
47784
47905
47998
48001
48005
48031
48039
48072
48082
48099
48101
48109
48181
48210
48214
48215
48229
48312
48320
48445
48472
48486
48559
48604
48606
48618
48620
48631
48644
48647
48678
48692
48695
48718
48750
48763
48779
48796
48797
48815
48819
48820
48827
48839
48843
48852
48931
49176
49188
49284
49302
49304
49359
49414
49422
49433
49445
49450
49459
49460
49473
49474
49480
49526
49528
49530
49535
49536
49541
49544
49545
49549
49558
49560
49561
49562
49570
49572
49574
49575
49579
49589
49591
49603
49604
49607
49608
49638
49639
49650
49672
49784
49948
49982
[ 298 ]
2779
2989
39107
39182
39202
43546
43550
43580
43803
45249
45251
45300
45603
45794
45820
45842
45853
45858
45859
45902
45906
45934
45938
47691
48032
48216
48217
48218
48219
48237
49481
49546
[ 299 ]
45181
45284
45898
49527
[ 300 ]
2721
45267
[ 301 ]
2335
2692
[ 302 ]
2270
2273
2283
2290
2379
2383
2388
2389
[ 303 ]
2265
2271
2297
2300
2301
2303
[ 304 ]
2276
2291
[ 320 ]
61668
61676
61724
61743
[ 321 ]
61568
61660
61680
61683
61692
61693
61717
61747
61748
61752
[ 322 ]
47442
47487
47492
50064
50180
50249
50673
50849
51455
51535
51539
52793
53414
53417
53419
53695
54166
54637
54652
54842
54923
54948
55002
55015
55110
55392
55420
55442
55456
55462
55469
55475
55485
55489
55498
55506
55516
55650
55656
55660
55663
55674
55682
55684
55687
55688
55701
55727
55800
55911
55935
55950
56030
56129
56178
56191
56193
56195
56203
56204
56234
56250
56258
56262
56268
56275
56277
58347
58902
59404
59638
60109
60403
60423
60462
60519
60563
60598
60600
60611
60619
60636
60671
60672
60681
60682
60813
60871
60967
61138
61167
61197
61215
61231
61248
61369
61372
61374
61375
61382
61387
61389
61399
61401
61403
61404
61421
61428
61435
61443
61478
61486
61495
61496
61507
61518
61541
61542
61558
61559
61572
61579
61597
61604
61639
61643
61654
61714
61722
61734
61750
61756
61766
61790
61794
61796
61797
61822
61826
61827
61833
61839
61877
61879
61955
62023
62027
62035
62073
62077
62192
62288
62308
62426
62483
62701
62770
63034
63169
63317
63330
63536
63577
63760
63782
63888
63891
63897
63904
63980
63983
64277
64674
64877
64924
65067
65518
67258
68226
69060
69412
69462
69827
[ 323 ]
32079
32086
36225
36293
36511
36518
36593
36647
37041
37513
37514
37519
37520
37877
37881
38077
38320
39280
39283
39285
39344
39383
41130
41133
41478
41562
41626
41681
41709
42202
42513
42520
42556
42684
42829
42834
44520
46399
46434
47040
47041
47050
47061
47112
47249
47305
47418
47420
47455
47462
50004
50005
50017
50022
50025
50030
50031
50033
50035
50045
50049
50050
50055
50057
50059
50062
50067
50070
50071
50077
50079
50088
50095
50102
50103
50106
50107
50112
50118
50120
50122
50135
50143
50150
50163
50178
50179
50183
50186
50188
50195
50196
50198
50203
50208
50229
50246
50250
50251
50280
50287
50304
50312
50329
50340
50365
50399
50404
50412
50420
50523
50542
50584
50668
50691
50698
50699
50714
50717
50718
50722
50735
50739
50750
50752
50763
50808
50827
50860
50877
50879
50886
50887
50889
50897
50898
50899
50906
50909
50910
50934
50939
50946
50947
50948
50958
50962
50964
50967
50968
50974
50981
50982
50983
50986
50987
50991
50993
51005
51012
51039
51040
51050
51099
51120
51128
51130
51131
51132
51148
51150
51151
51157
51158
51162
51173
51197
51322
51344
51348
51360
51363
51440
51441
51477
51496
51528
51546
51553
51554
51559
51563
51564
51565
51572
51575
51582
51584
51608
51615
51629
51630
51638
51643
51644
51666
51669
51785
51787
51791
51871
51873
51875
51890
51891
51894
51899
51903
51953
51986
51992
51995
52007
52018
52027
52028
52148
52157
52580
52812
52836
52872
52946
52993
53027
53042
53047
53188
53216
53248
53307
53363
53365
53389
53408
53409
53412
53421
53423
53426
53427
53428
53429
53449
53541
53712
53725
53750
53757
53798
53819
53832
53945
54014
54089
54092
54161
54244
54259
54274
54287
54320
54372
54400
54422
54470
54475
54476
54517
54533
54572
54580
54628
54635
54642
54656
54664
54668
54671
54672
54694
54697
54757
54837
54847
54850
54859
54925
54946
54949
54955
54979
55036
55166
55378
55379
55406
55415
55418
55439
55444
55446
55448
55450
55452
55457
55458
55464
55467
55468
55470
55473
55476
55477
55480
55486
55490
55491
55493
55495
55496
55497
55501
55504
55510
55511
55512
55514
55519
55522
55523
55527
55616
55623
55629
55633
55634
55635
55638
55642
55649
55653
55654
55655
55657
55661
55662
55664
55665
55666
55675
55676
55677
55683
55685
55686
55692
55693
55694
55696
55698
55703
55705
55706
55707
55708
55709
55712
55715
55740
55747
55755
55774
55811
55821
55822
55842
55854
55862
55865
55889
55999
56009
56027
56029
56031
56032
56033
56034
56051
56062
56063
56067
56091
56114
56116
56126
56157
56164
56166
56169
56170
56171
56172
56175
56176
56180
56181
56183
56199
56200
56212
56216
56217
56218
56225
56226
56229
56231
56235
56236
56237
56238
56241
56244
56245
56248
56252
56253
56255
56256
56265
56269
56270
56271
56299
56302
56474
56540
56793
56804
56916
57174
57208
57228
57421
57479
57483
57618
57631
57633
57702
57708
57717
57740
57741
57779
58256
58302
58357
58652
58653
58690
58774
58831
58915
58922
59067
59340
59385
59535
59589
60162
60306
60335
60344
60414
60440
60500
60517
60518
60520
60547
60556
60566
60569
60581
60582
60586
60587
60596
60604
60610
60624
60625
60632
60633
60639
60640
60643
60644
60648
60684
60777
60823
60890
60913
60915
60946
60947
60956
60961
60965
61013
61027
61105
61115
61125
61129
61131
61132
61134
61137
61139
61143
61157
61161
61163
61165
61169
61170
61172
61178
61182
61192
61194
61198
61202
61205
61207
61208
61209
61212
61213
61218
61221
61225
61226
61232
61233
61234
61254
61265
61303
61332
61334
61340
61344
61345
61378
61405
61406
61407
61409
61410
61413
61417
61420
61430
61436
61438
61439
61440
61457
61468
61473
61481
61482
61485
61494
61658
61710
61765
61768
61786
61788
61789
61836
61864
61868
61870
61872
61876
61881
61885
61886
61893
61897
61900
61901
61902
61903
61904
61908
61917
61929
61935
61937
61940
61948
61950
61954
61988
61999
62004
62005
62021
62028
62033
62089
62091
62092
62095
62097
62098
62100
62101
62102
62103
62107
62110
62113
62157
62164
62213
62242
62266
62271
62339
62356
62410
62411
62434
62436
62437
62442
62479
62481
62493
62500
62511
62514
62534
62642
62647
62648
62651
62659
62694
62743
62759
62771
62800
62832
62843
62868
62870
62914
62917
62920
62929
62932
62936
62937
62939
62940
62941
62945
62952
62958
63038
63040
63045
63088
63103
63106
63159
63188
63193
63201
63262
63263
63267
63271
63276
63340
63349
63350
63418
63444
63446
63476
63499
63514
63543
63573
63578
63589
63643
63646
63652
63690
63716
63749
63807
63819
63821
63825
63826
63874
63875
63879
63883
63909
63913
63957
63962
63963
63973
64007
64011
64012
64024
64026
64035
64036
64038
64042
64046
64051
64057
64063
64069
64070
64072
64080
64426
64490
65001
65049
65060
65065
65145
65231
65236
65237
65240
65242
65262
65491
65540
65570
65728
65842
65869
65910
65919
65975
65989
66056
66058
66060
66073
66078
66079
66081
66083
66084
66127
66250
66272
66316
66351
66452
66593
66816
66860
66969
67227
67267
67499
67500
67545
67595
67787
67967
68098
68471
68830
68924
68971
68992
68994
68995
69039
69068
69084
69160
69204
69217
69226
69227
69247
69332
69531
69565
69578
69894
[ 324 ]
8816
14795
14918
16650
16946
23152
30801
32062
32063
32064
32072
32078
32089
32090
32092
32137
32138
32140
32146
32149
32153
32154
32171
32172
32173
32174
32193
32195
32199
33772
33825
33964
34009
34049
34836
34840
34848
34852
34863
34864
34866
34869
34871
35214
35258
35351
35376
35386
35434
35871
35989
36070
36144
36149
36176
36179
36227
36239
36269
36285
36294
36298
36314
36325
36330
36331
36347
36351
36360
36368
36383
36388
36390
36394
36399
36401
36402
36476
36490
36503
36504
36509
36510
36512
36528
36532
36534
36543
36547
36566
36585
36592
36613
36625
36628
36629
36635
36641
36644
36659
36661
36675
36692
36727
36730
36769
36792
36795
36870
36894
36966
36991
37055
37057
37058
37061
37063
37067
37068
37082
37086
37092
37094
37123
37128
37129
37132
37134
37139
37151
37165
37171
37194
37196
37205
37211
37228
37229
37235
37236
37238
37241
37242
37243
37245
37249
37250
37251
37263
37264
37266
37271
37273
37275
37276
37278
37280
37287
37289
37290
37291
37293
37295
37296
37297
37298
37304
37305
37309
37312
37314
37320
37322
37324
37325
37331
37335
37336
37337
37338
37340
37343
37346
37356
37393
37394
37395
37464
37490
37510
37515
37522
37530
37672
37673
37684
37687
37692
37700
37702
37724
37860
37884
37960
37962
37978
38007
38013
38014
38015
38016
38017
38074
38076
38078
38079
38085
38087
38090
38091
38109
38110
38111
38116
38120
38121
38122
38138
38141
38148
38150
38154
38159
38165
38181
38268
38269
38288
38306
38311
38312
38318
38321
38322
38324
38326
38328
38329
38330
38343
38393
38398
38424
39273
39276
39278
39279
39290
39860
39867
39912
40312
40313
40320
40324
40383
40389
40392
40402
40403
40423
40426
40433
40437
40441
40448
40458
40459
40467
40471
40484
40485
40486
40502
40512
40543
40545
40549
40550
40560
40571
40579
40585
40591
40592
40594
40595
40621
40622
40634
40635
40640
40645
40646
40647
40648
40649
40652
40659
40665
40666
40674
40682
40690
40700
40702
40712
40717
40726
40728
40730
40733
40742
40745
40755
40762
40763
40774
40775
40782
40786
40792
40793
40796
40802
40803
40813
40818
40819
40825
40830
40832
40835
40837
40841
40853
40870
40876
40884
40901
40902
40908
40917
40924
40928
40931
40932
40934
40938
40939
40944
40947
40949
40953
40954
40961
40968
40970
40973
40979
40980
40995
40998
41000
41003
41009
41021
41035
41036
41037
41039
41041
41046
41052
41061
41067
41077
41082
41101
41103
41118
41119
41121
41123
41132
41134
41135
41137
41144
41155
41157
41187
41188
41191
41197
41198
41227
41232
41235
41249
41282
41286
41311
41406
41475
41482
41483
41486
41496
41503
41507
41508
41510
41513
41515
41517
41526
41528
41529
41531
41534
41535
41538
41540
41544
41547
41548
41553
41555
41558
41563
41567
41568
41569
41570
41577
41578
41579
41581
41583
41584
41585
41588
41609
41617
41625
41631
41632
41633
41640
41644
41645
41649
41653
41655
41657
41660
41661
41663
41664
41665
41666
41668
41671
41672
41673
41676
41683
41685
41690
41691
41692
41696
41698
41701
41702
41703
41705
41706
41710
41711
41712
41715
41716
41717
41718
41719
41721
41725
41726
41728
41729
41732
41737
41739
41741
41743
41744
41745
41746
41755
41761
41769
41772
41775
41777
41796
41824
41827
41828
41832
41846
41847
42018
42090
42119
42161
42171
42173
42188
42204
42218
42238
42244
42251
42308
42312
42355
42388
42389
42390
42397
42403
42410
42411
42413
42414
42421
42422
42423
42424
42425
42428
42430
42441
42442
42443
42444
42446
42447
42448
42449
42451
42453
42454
42456
42457
42461
42477
42484
42486
42494
42495
42498
42499
42501
42502
42505
42507
42517
42528
42529
42530
42531
42535
42536
42540
42541
42542
42543
42549
42551
42553
42555
42557
42558
42560
42561
42562
42564
42567
42568
42569
42570
42577
42579
42585
42590
42592
42604
42606
42608
42614
42615
42623
42625
42629
42630
42633
42634
42640
42642
42644
42645
42646
42647
42651
42652
42654
42655
42660
42667
42671
42675
42676
42677
42678
42680
42681
42687
42695
42697
42700
42701
42702
42706
42707
42710
42713
42717
42722
42724
42726
42729
42730
42742
42746
42748
42750
42768
42769
42772
42773
42774
42775
42779
42781
42785
42787
42789
42790
42791
42797
42799
42801
42803
42807
42809
42810
42818
42825
42826
42836
42837
42840
42841
42843
42844
42848
42849
42850
42851
42853
42859
42865
42866
42868
42869
42872
42873
42880
42881
42883
42884
42889
42890
42892
42894
42898
42899
42918
42924
42925
42926
42930
42963
42980
42992
42996
43019
43046
43096
43100
43107
43109
43111
43139
43140
43145
43148
43165
43168
43385
43386
44498
46275
46278
46300
46301
46306
46325
46395
46398
46405
46411
46432
46636
46812
46813
46816
47100
47192
47194
47200
47238
47241
47242
47254
47256
47278
47326
47329
47332
47388
47395
47396
47514
47520
50038
50041
50097
50184
50191
50219
50260
50315
50330
50509
50548
50695
50696
50799
50826
50876
50884
50888
50911
50923
50941
50978
50980
50985
51010
51013
51014
51154
51549
51583
51631
51640
51657
51659
51717
51847
51853
51878
52175
52778
52842
52884
52947
52968
52991
52999
53018
53019
53021
53702
53763
53957
54026
54558
54562
54573
54703
55149
55438
55505
56004
56005
56120
56247
56482
58070
58973
58975
59256
60158
60405
61229
61235
61260
61914
61965
62322
63137
63144
63639
63654
63961
65415
66066
66271
66403
66528
66585
67241
67634
69229
[ 325 ]
9268
9990
10117
10807
12251
12556
16486
16654
17904
20558
20602
21207
21781
22292
23107
23127
23147
23163
23165
23169
23185
23204
23549
23550
25814
30904
31069
31071
31178
31226
31250
31307
31573
31722
32109
32111
32113
32115
32116
32119
32121
32123
32125
32127
32129
32132
32134
32169
32170
32175
32180
32189
32191
32196
32197
32198
32458
32461
32464
32465
32466
32477
32501
32514
32523
32526
32551
32554
32555
32557
32565
32585
32588
32606
32620
32644
32645
32650
32659
32669
32671
32674
32677
32680
32681
32685
32705
32715
32716
32718
32724
32730
32732
32738
32739
32740
32742
32749
32750
32757
32760
32772
32774
32777
32781
32782
32789
32800
32803
32804
32806
32810
32812
32824
32831
32837
32838
32840
32841
32843
32849
32852
32857
32859
32860
32861
32871
32882
32886
32888
32892
32894
32895
32902
32905
32906
32910
32984
32991
33302
33309
33511
33826
33827
33837
33943
33958
33961
33962
33966
34011
34050
34051
34182
34295
34299
34301
34302
34307
34313
34314
34315
34316
34319
34322
34324
34325
34338
34339
34341
34345
34348
34361
34362
34363
34393
34846
34851
34853
34856
34857
34861
34862
34867
34872
34885
34890
34910
34921
34926
34961
34972
34997
35004
35058
35059
35158
35219
35222
35223
35224
35225
35227
35234
35237
35239
35240
35246
35247
35248
35249
35261
35270
35272
35278
35306
35307
35324
35330
35342
35349
35350
35358
35363
35364
35374
35380
35382
35385
35414
35419
35421
35422
35437
35863
35931
36066
36071
36075
36139
36143
36150
36153
36156
36158
36162
36175
36177
36178
36183
36186
36188
36198
36199
36201
36202
36205
36211
36214
36216
36219
36223
36230
36231
36248
36254
36284
36303
36304
36310
36311
36312
36317
36322
36326
36328
36329
36345
36352
36370
36393
36437
36438
36459
36465
36470
36475
36478
36479
36493
36506
36527
36553
36563
36581
36586
36594
36597
36615
36617
36623
36655
36699
36703
36716
36719
36787
36794
36869
36872
36885
36900
36905
36918
36933
36934
36935
36936
36941
36945
36958
36967
36978
36990
37003
37009
37074
37075
37076
37078
37080
37090
37091
37096
37120
37126
37136
37138
37202
37248
37254
37256
37258
37262
37279
37288
37332
37360
37396
37541
37585
37601
37604
37608
37660
37661
37665
37667
37680
37686
37695
37709
37720
37756
37793
37796
37808
37852
37882
37917
37927
37944
37951
37956
37979
37984
38006
38008
38021
38032
38041
38066
38089
38102
38104
38105
38106
38115
38117
38118
38124
38126
38129
38131
38136
38139
38144
38149
38151
38152
38160
38166
38168
38170
38173
38178
38179
38183
38188
38189
38213
38223
38272
38307
38308
38331
38334
38344
38345
38346
38347
38360
38364
38367
38368
38372
38374
38376
38381
38383
38390
38391
38392
38394
38400
38427
38464
38465
38494
38700
38742
38778
39274
39385
39387
39666
39727
39813
39815
39837
39856
39875
39876
39877
39879
39913
39927
39928
40225
40226
40228
40234
40236
40237
40239
40251
40290
40307
40308
40311
40314
40315
40316
40317
40318
40319
40323
40331
40332
40347
40369
40372
40391
40393
40394
40398
40421
40425
40430
40435
40436
40438
40439
40445
40446
40452
40455
40464
40465
40466
40468
40473
40475
40481
40482
40487
40488
40491
40492
40495
40496
40517
40519
40529
40539
40544
40559
40566
40569
40574
40582
40584
40586
40589
40590
40593
40611
40613
40614
40616
40619
40625
40628
40630
40631
40632
40638
40641
40642
40643
40644
40650
40651
40654
40655
40657
40658
40664
40667
40673
40675
40677
40678
40685
40691
40692
40696
40701
40704
40713
40714
40716
40721
40723
40725
40727
40731
40734
40737
40739
40752
40770
40772
40773
40783
40811
40814
40860
40864
40866
40868
40874
40885
40887
40888
40893
40894
40903
40919
40925
40935
40937
40943
40945
40946
40948
40950
40952
40957
40960
40963
40967
40981
40989
40991
40996
40997
40999
41005
41007
41008
41010
41013
41016
41020
41022
41025
41026
41042
41044
41047
41050
41051
41057
41059
41066
41069
41070
41071
41072
41073
41074
41076
41080
41081
41084
41088
41089
41097
41106
41112
41122
41139
41142
41143
41146
41148
41149
41156
41161
41195
41199
41201
41202
41204
41206
41215
41216
41218
41221
41225
41230
41233
41236
41239
41241
41242
41243
41245
41247
41248
41252
41258
41263
41271
41272
41276
41277
41279
41280
41284
41291
41293
41295
41296
41298
41301
41303
41304
41313
41314
41320
41322
41326
41338
41340
41365
41374
41416
41429
41436
41438
41441
41444
41445
41446
41454
41462
41464
41469
41472
41474
41476
41484
41488
41493
41495
41497
41498
41501
41502
41520
41521
41522
41549
41551
41571
41591
41593
41612
41614
41615
41621
41627
41634
41637
41652
41654
41678
41686
41687
41689
41695
41697
41708
41714
41723
41733
41736
41747
41749
41750
41751
41753
41754
41757
41758
41759
41765
41778
41780
41782
41785
41788
41793
41797
41799
41802
41803
41806
41807
41838
41843
41882
42006
42007
42008
42009
42010
42011
42012
42013
42014
42015
42016
42017
42070
42074
42075
42077
42079
42080
42100
42103
42115
42116
42123
42128
42147
42148
42152
42163
42166
42170
42176
42179
42186
42211
42215
42217
42219
42223
42231
42237
42239
42242
42246
42248
42252
42254
42261
42266
42267
42272
42274
42275
42284
42288
42289
42292
42293
42296
42299
42300
42302
42305
42306
42309
42311
42314
42316
42317
42318
42319
42326
42329
42331
42334
42353
42354
42365
42375
42376
42377
42378
42391
42393
42405
42408
42412
42419
42420
42429
42434
42439
42440
42462
42466
42467
42468
42472
42478
42485
42487
42488
42489
42500
42503
42509
42522
42534
42559
42563
42565
42601
42605
42616
42617
42619
42632
42635
42636
42639
42650
42661
42662
42664
42673
42686
42690
42699
42703
42704
42709
42712
42715
42725
42732
42733
42734
42738
42752
42754
42763
42766
42771
42778
42795
42802
42817
42828
42833
42838
42857
42861
42863
42874
42875
42886
42888
42891
42893
42895
42897
42902
42907
42908
42909
42912
42916
42917
42928
42931
42932
42938
42939
42944
42950
42952
42965
42966
42968
42969
42973
42976
42977
42981
42983
42986
42988
42989
42990
42991
42994
43004
43008
43009
43018
43021
43022
43023
43026
43027
43028
43032
43034
43038
43050
43051
43081
43089
43091
43092
43097
43098
43105
43116
43117
43128
43133
43135
43136
43137
43143
43144
43147
43153
43154
43156
43160
43161
43170
43171
43199
43213
43250
43284
43288
43310
43331
43333
43337
43381
43392
43422
44068
44167
44172
44326
44451
44455
44457
44468
44469
44481
44488
44492
44506
44516
44518
44519
44858
44865
44866
44887
44933
44951
45123
45542
45580
46010
46103
46117
46142
46143
46249
46270
46272
46280
46289
46290
46299
46317
46327
46344
46364
46367
46371
46374
46397
46428
46431
46436
46473
46476
46520
46567
46631
46635
46637
46649
46653
46665
46666
46688
46694
46699
46701
46703
46704
46706
46716
46734
46737
46798
46809
46810
46814
46818
46819
46822
46823
46836
46839
46859
46985
46994
47088
47105
47106
47107
47195
47243
47315
47325
47508
47842
49865
50891
52880
52948
52956
52958
52960
52962
52972
[ 326 ]
2877
4472
5197
8355
8697
8716
10615
11348
22216
23154
23702
23746
23837
24088
25740
26540
27310
28078
28914
28915
28923
28931
28932
28938
29892
30879
31184
31197
31198
31202
31222
31223
31236
31239
31241
31246
31247
31248
31249
31252
31290
31328
31384
31521
31602
31941
31942
32096
32101
32107
32201
32202
32203
32205
32209
32220
32222
32228
32231
32234
32236
32248
32252
32277
32315
32322
32325
32332
32334
32336
32339
32341
32349
32350
32353
32355
32374
32385
32386
32387
32392
32412
32428
32431
32435
32436
32442
32446
32448
32454
32463
32468
32469
32471
32473
32478
32486
32488
32491
32496
32498
32504
32508
32509
32512
32515
32519
32529
32530
32532
32537
32538
32542
32544
32547
32548
32552
32553
32566
32568
32577
32607
32609
32612
32617
32626
32627
32629
32630
32634
32638
32639
32648
32649
32657
32675
32690
32695
32699
32703
32706
32708
32710
32713
32714
32733
32735
32748
32754
32759
32764
32768
32771
32773
32780
32785
32787
32788
32792
32797
32798
32799
32801
32805
32807
32808
32818
32821
32825
32866
32885
32896
32899
32904
32919
32934
32938
32971
32977
32978
32980
32982
32990
32992
33009
33012
33013
33031
33039
33051
33054
33063
33064
33104
33115
33143
33151
33158
33159
33160
33166
33181
33192
33210
33218
33227
33249
33261
33316
33320
33347
33349
33364
33370
33379
33381
33387
33388
33398
33478
33484
33487
33513
33516
33541
33545
33550
33558
33561
33569
33570
34293
34300
34321
34356
34368
34798
34804
34823
34833
34888
34900
34901
34902
34903
34905
34909
34911
34916
34920
34932
34943
34944
34945
34946
34953
34959
34960
34962
34963
34969
34976
34978
34980
34982
34984
34986
34992
35006
35009
35010
35021
35031
35032
35033
35035
35041
35042
35052
35053
35054
35061
35063
35072
35075
35077
35078
35079
35083
35089
35094
35097
35101
35111
35114
35127
35133
35141
35143
35148
35151
35157
35162
35165
35229
35230
35235
35238
35273
35285
35309
35310
35328
35359
35360
35375
35377
35392
35397
35410
35412
35416
35417
35418
35692
35768
35792
35799
35800
35836
35842
35993
36053
36123
36159
36172
36228
36337
36339
36380
36439
36451
36455
36555
36959
37533
37535
37540
37543
37548
37564
37606
37651
37652
37689
37690
37694
37696
37742
37766
37777
37780
37790
37795
37992
37996
38000
38001
38022
38093
38094
38097
38098
38100
38175
38212
38214
38221
38230
38257
38378
38430
38445
38448
38449
38454
38461
38470
38471
38472
38493
38528
38532
38574
38622
38663
38664
38671
38673
38681
38684
38707
38735
38761
38772
38887
38916
38918
38919
38923
38926
39035
39077
39096
39101
39123
39128
39136
39138
39150
39154
39155
39156
39157
39161
39164
39388
39413
39646
39651
39653
39675
39687
39703
39725
39795
39814
39817
39818
39820
39827
39904
39905
39930
39932
40054
40058
40109
40144
40159
40166
40167
40171
40173
40178
40179
40186
40204
40215
40220
40222
40255
40256
40259
40264
40266
40269
40273
40285
40287
40301
40309
40326
40339
40342
40343
40351
40356
40361
40368
40376
40381
40382
40570
40751
40861
41043
41086
41091
41093
41094
41096
41110
41111
41116
41150
41162
41177
41180
41181
41246
41294
41308
41315
41325
41328
41331
41335
41339
41341
41347
41352
41358
41360
41361
41362
41363
41367
41368
41373
41375
41377
41398
41414
41435
41449
41601
41602
41794
41801
41861
41930
41944
42020
42022
42028
42040
42042
42046
42048
42050
42060
42071
42076
42078
42099
42107
42112
42113
42126
42165
42187
42258
42277
42291
42297
42298
42341
42345
42350
42351
42357
42360
42361
42363
42364
42366
42367
42379
42380
42382
42385
42387
42481
42482
42716
42987
43007
43010
43012
43014
43090
43093
43120
43121
43125
43127
43129
43131
43138
43158
43174
43176
43180
43181
43182
43196
43200
43205
43208
43210
43211
43216
43217
43218
43227
43228
43230
43231
43249
43258
43260
43273
43276
43285
43293
43294
43295
43299
43300
43305
43313
43315
43318
43327
43328
43329
43330
43350
43358
43359
43362
43366
43368
43370
43374
43380
43383
43425
43433
43434
43435
43436
43438
43439
43450
43453
43647
43880
43896
43899
43901
43902
43905
43918
43973
43985
44005
44025
44049
44052
44053
44076
44160
44166
44186
44188
44195
44199
44205
44219
44225
44230
44231
44232
44235
44249
44291
44306
44318
44322
44323
44325
44330
44333
44376
44377
44378
44380
44381
44384
44405
44447
44448
44450
44453
44461
44462
44471
44472
44483
44500
44510
44525
44527
44620
44658
44700
44701
44731
44742
44747
44751
44753
44783
44819
44820
44824
44830
44838
44856
44857
44869
44870
44874
44880
44883
44889
44917
44929
44935
44948
44950
44962
44968
44969
44970
44976
45013
45015
45047
45049
45053
45115
45120
45122
45125
45151
45497
45543
45544
45545
45564
45574
45626
45627
45631
45667
45672
45676
45677
45682
45691
45692
45693
45710
45730
45751
45767
45800
45956
46006
46007
46025
46033
46034
46061
46090
46096
46105
46110
46111
46112
46123
46136
46205
46260
46267
46285
46286
46288
46291
46293
46294
46295
46298
46309
46312
46321
46323
46332
46343
46345
46352
46354
46356
46363
46372
46375
46385
46389
46390
46424
46426
46438
46440
46446
46447
46455
46467
46468
46471
46507
46508
46509
46513
46516
46523
46524
46526
46528
46534
46537
46549
46606
46607
46610
46611
46612
46613
46616
46620
46621
46625
46627
46639
46652
46655
46663
46664
46670
46672
46673
46679
46686
46687
46690
46691
46707
46713
46714
46718
46720
46728
46729
46730
46732
46738
46751
46753
46754
46755
46758
46761
46779
46790
46800
46806
46827
46831
46834
46841
46842
46843
46845
46857
46858
46860
46866
46868
46869
46870
46887
46895
46932
46938
46939
46949
46951
46963
46967
46980
46981
47512
47516
47517
47533
47634
47717
47791
47893
47956
47966
48129
48131
48133
48139
48348
48384
48408
48431
48483
48492
48514
49071
49124
49125
49217
49335
49336
49346
49347
49380
49398
49403
49597
49620
49622
49629
49633
49682
49690
49694
49700
49701
49769
49803
49805
49809
49824
49852
49853
49863
49866
49868
49895
49906
49927
49928
[ 327 ]
2950
2958
2994
3086
3093
3094
3105
3110
3116
3119
3123
3125
3130
3133
3137
3144
3148
3164
3199
3201
3202
3210
3211
3212
3214
3254
3256
3382
3388
3390
3417
6691
6706
7256
7304
7306
7329
8625
13086
16683
16685
17420
20867
21861
22440
22905
23056
24295
24545
25478
25983
26235
26465
26480
26938
27308
27309
27313
27316
27325
27326
27327
27361
27371
27439
27464
27997
28036
28082
28711
28907
28918
28919
28920
28924
28935
28937
28939
28941
28944
28948
29196
31059
31192
31209
31211
31212
31221
31300
31327
31427
31471
31516
31520
31525
31646
31658
31665
31857
31858
31859
31861
31938
31943
32100
32206
32207
32208
32211
32212
32213
32216
32217
32218
32221
32224
32226
32230
32232
32233
32237
32255
32261
32262
32267
32270
32271
32273
32280
32283
32287
32288
32291
32297
32298
32301
32316
32321
32326
32327
32333
32338
32351
32352
32358
32361
32366
32368
32369
32372
32373
32394
32396
32409
32415
32416
32419
32444
32445
32474
32487
32493
32497
32507
32517
32922
32928
32929
32931
32947
32948
32966
32968
32999
33001
33002
33003
33022
33026
33029
33036
33040
33041
33043
33044
33046
33048
33055
33076
33079
33081
33082
33084
33085
33087
33088
33089
33117
33118
33119
33121
33126
33127
33128
33132
33134
33135
33139
33142
33149
33150
33163
33164
33165
33191
33193
33196
33197
33201
33203
33219
33225
33228
33236
33239
33245
33250
33258
33260
33264
33269
33270
33275
33285
33286
33288
33289
33290
33291
33294
33329
33332
33333
33335
33338
33342
33353
33366
33367
33371
33373
33374
33376
33389
33391
33392
33393
33394
33396
33400
33401
33427
33454
33455
33470
33480
33507
33517
33523
33528
33533
33538
33539
33544
33547
33554
33557
33560
33562
33565
33566
33574
33576
33577
33581
33583
33584
33586
33587
33592
33596
33598
33599
33604
33606
33695
34394
34426
34444
34449
34452
34582
34625
34805
34808
34810
34811
34815
34816
34818
34819
34825
34826
34829
34832
34924
34929
34981
34994
35011
35015
35026
35034
35043
35045
35048
35062
35065
35066
35069
35071
35088
35096
35102
35104
35106
35108
35118
35120
35123
35128
35129
35134
35136
35147
35150
35166
35236
35293
35304
35313
35320
35396
35406
35408
35409
35424
35470
36377
36378
36449
36556
37583
37586
37611
37615
37618
37625
37627
37630
37636
37691
37983
37997
38099
38217
38224
38476
38531
38535
38541
38543
38554
38556
38660
38691
38816
38832
38863
38880
38881
38882
38883
38886
38888
38893
38894
38896
38898
38899
38900
38901
38902
38917
38974
39052
39054
39066
39093
39098
39125
39134
39142
39145
39147
39151
39168
39169
39175
39197
39198
39396
39406
39417
39476
39477
39480
39484
39492
39501
39529
39561
39574
39576
39578
39596
39604
39609
39620
39635
39640
39641
39642
39645
39659
39661
39676
39692
39697
39698
39702
39704
39712
39714
39717
39728
39731
39748
39750
39751
39755
39761
39762
39776
39777
39779
39784
39791
39794
39796
39808
39811
39819
39881
39883
39898
39900
39902
39919
39920
39936
39971
39973
39987
39988
39991
39992
40034
40052
40057
40063
40064
40111
40133
40137
40152
40155
40160
40165
40174
40175
40176
40183
40184
40187
40188
40190
40191
40195
40196
40199
40202
40205
40208
40209
40211
40214
40216
40219
40271
40272
40274
40286
40291
40303
40334
40335
40336
40354
40362
40367
41160
41163
41164
41165
41166
41173
41174
41175
41176
41178
41321
41333
41397
41413
41450
41451
41453
41863
41864
41869
41872
41883
41888
41892
41900
41901
41911
41917
41918
41922
41925
41933
41937
41954
41959
41961
41962
41964
41965
41967
41969
41978
41993
42019
42025
42047
42061
42081
42340
42348
43175
43177
43186
43190
43193
43195
43203
43223
43224
43225
43238
43239
43240
43241
43245
43246
43248
43254
43255
43257
43259
43263
43265
43266
43270
43275
43281
43290
43292
43303
43306
43308
43312
43316
43317
43319
43340
43344
43349
43357
43363
43371
43375
43376
43397
43402
43410
43414
43416
43419
43420
43432
43443
43448
43463
43469
43493
43520
43521
43527
43543
43558
43560
43571
43591
43602
43607
43609
43644
43646
43649
43656
43665
43666
43668
43673
43699
43701
43719
43728
43738
43741
43743
43744
43759
43769
43771
43828
43850
43863
43867
43869
43873
43875
43877
43878
43879
43883
43895
43906
43914
43915
43919
43929
43938
43948
43949
43956
43959
43963
43970
43986
43987
43995
43996
44001
44010
44017
44020
44021
44022
44023
44038
44042
44047
44048
44054
44055
44077
44079
44082
44083
44084
44099
44101
44108
44125
44135
44139
44140
44145
44148
44165
44173
44174
44180
44181
44198
44216
44217
44223
44229
44233
44242
44244
44245
44250
44251
44252
44263
44287
44290
44299
44300
44304
44308
44310
44312
44315
44317
44321
44327
44331
44336
44338
44341
44352
44354
44355
44367
44379
44382
44386
44387
44394
44399
44404
44409
44410
44412
44415
44416
44417
44421
44434
44458
44460
44528
44538
44547
44549
44563
44577
44579
44580
44585
44586
44587
44596
44599
44602
44603
44604
44611
44613
44616
44619
44623
44626
44627
44630
44633
44637
44640
44642
44643
44644
44657
44661
44662
44664
44665
44667
44676
44681
44686
44688
44695
44705
44706
44708
44716
44719
44721
44724
44728
44735
44740
44741
44743
44744
44746
44757
44758
44766
44772
44786
44800
44806
44815
44823
44843
44852
44895
44903
44905
44918
44921
44922
44924
44925
44927
44938
44939
44940
44945
44946
44949
44954
44971
44972
44973
44974
44977
44979
44988
45007
45016
45023
45028
45030
45048
45061
45066
45069
45074
45082
45089
45090
45104
45105
45106
45117
45119
45135
45138
45147
45183
45184
45206
45351
45352
45365
45368
45392
45399
45419
45421
45426
45441
45451
45465
45479
45489
45503
45513
45514
45521
45528
45530
45531
45547
45567
45582
45584
45585
45615
45624
45628
45629
45636
45640
45642
45649
45655
45656
45657
45658
45661
45669
45670
45674
45675
45694
45699
45703
45704
45711
45717
45718
45721
45723
45727
45735
45737
45738
45745
45755
45756
45759
45763
45765
45768
45770
45776
45782
45830
45839
45877
45878
45879
45955
45978
45980
45997
46000
46005
46021
46023
46024
46026
46027
46029
46030
46039
46041
46047
46053
46054
46055
46079
46085
46086
46091
46092
46097
46109
46122
46132
46133
46139
46149
46150
46154
46155
46182
46193
46194
46206
46208
46215
46221
46225
46231
46243
46244
46245
46247
46248
46251
46256
46313
46314
46318
46336
46351
46355
46358
46360
46369
46379
46383
46445
46448
46460
46464
46465
46472
46511
46512
46538
46540
46546
46550
46553
46556
46562
46569
46571
46582
46584
46585
46586
46588
46590
46594
46596
46597
46615
46680
46684
46712
46747
46748
46756
46757
46768
46769
46773
46776
46782
46788
46792
46796
46797
46804
46828
46829
46835
46844
46849
46865
46876
46878
46890
46891
46892
46898
46899
46906
46911
46914
46915
46917
46918
46919
46933
46940
46942
46945
46947
46957
46959
46962
46979
46982
47523
47524
47527
47592
47608
47616
47620
47621
47627
47630
47635
47639
47694
47707
47712
47715
47716
47719
47720
47722
47730
47767
47783
47789
47790
47798
47813
47825
47826
47828
47829
47836
47837
47840
47844
47847
47850
47860
47862
47865
47881
47884
47886
47897
47902
47908
47911
47915
47917
47926
47927
47932
47934
47936
47937
47942
47944
47946
47947
47948
47949
47955
47957
47958
47959
47961
47963
47975
47976
47984
47989
47991
47996
47997
48017
48074
48077
48079
48115
48120
48122
48123
48125
48132
48134
48135
48136
48137
48138
48140
48150
48151
48153
48156
48157
48159
48166
48167
48171
48179
48190
48191
48192
48202
48205
48285
48299
48327
48339
48340
48343
48347
48351
48355
48373
48380
48381
48388
48393
48399
48405
48407
48410
48411
48412
48449
48454
48456
48457
48459
48462
48476
48477
48478
48485
48493
48494
48499
48504
48510
48515
48516
48520
48521
48523
48536
48556
48573
48581
48639
48686
48690
48731
48740
48758
48771
48772
48774
48813
48913
48923
48964
48975
48976
48979
48983
48986
48987
48995
49000
49017
49030
49032
49035
49042
49073
49077
49078
49079
49102
49117
49119
49120
49121
49132
49152
49160
49177
49187
49210
49215
49223
49225
49238
49239
49240
49241
49242
49244
49247
49248
49252
49253
49256
49264
49271
49273
49290
49291
49292
49298
49303
49308
49319
49324
49332
49340
49341
49345
49348
49349
49350
49351
49378
49381
49387
49389
49391
49392
49397
49400
49401
49404
49405
49408
49449
49453
49468
49506
49614
49618
49626
49627
49634
49635
49640
49641
49644
49651
49653
49665
49669
49675
49679
49683
49691
49693
49697
49702
49707
49708
49711
49714
49716
49720
49721
49725
49727
49729
49738
49746
49756
49760
49764
49768
49772
49774
49776
49777
49778
49780
49782
49788
49789
49791
49792
49795
49796
49810
49814
49819
49822
49826
49840
49841
49844
49846
49851
49854
49856
49858
49859
49870
49871
49873
49881
49883
49884
49893
49897
49902
49908
49909
49913
49915
49918
49919
49920
49923
49925
49930
49937
49939
49940
49941
49946
49950
49953
49955
49963
49966
49977
49989
[ 328 ]
2946
2954
2959
2987
3006
3013
3039
3082
3104
3106
3108
3127
3140
3141
3143
3147
3166
3167
3168
3170
3179
3180
3181
3182
3185
3191
3200
3205
8588
8613
9961
21865
24468
25734
25850
27312
27329
27334
27352
27360
27467
31644
31647
31672
32276
32282
32289
32293
32949
32952
33000
33025
33034
33072
33096
33109
33136
33185
33187
33234
33272
33327
33328
33331
33422
33425
33433
33457
33458
33460
33471
33520
33525
33526
33543
33549
33559
33575
33579
33580
34386
34427
34535
34584
34799
34800
34809
34814
35024
35122
35130
35319
36557
37549
37633
37638
37639
37644
38537
38835
38837
38841
39038
39041
39051
39091
39094
39143
39165
39174
39408
39415
39424
39427
39479
39505
39545
39546
39597
39598
39599
39600
39603
39606
39621
39622
39637
39729
39754
39757
39764
39768
39770
39771
39772
39774
39775
39797
39901
39923
39924
39933
39937
39966
39969
39970
39974
39989
39994
39997
40033
40194
40206
40207
40210
41169
41868
41905
41973
41986
41987
41989
41990
41994
43325
43345
43346
43379
43411
43415
43471
43494
43495
43497
43502
43503
43509
43513
43585
43606
43608
43613
43615
43619
43620
43623
43624
43634
43636
43637
43638
43648
43663
43669
43674
43676
43678
43690
43697
43703
43708
43711
43716
43717
43718
43721
43722
43724
43732
43737
43742
43748
43754
43757
43758
43772
43775
43778
43822
43823
43827
43830
43832
43838
43841
43859
43887
43890
43894
43934
43937
43940
43941
43942
43943
43958
43966
43981
43989
43990
43992
43993
44000
44002
44009
44018
44019
44059
44080
44098
44104
44105
44118
44134
44137
44143
44152
44153
44154
44215
44220
44236
44238
44253
44256
44260
44261
44265
44276
44303
44313
44340
44345
44350
44397
44403
44429
44439
44440
44529
44541
44544
44545
44546
44548
44555
44556
44557
44562
44564
44566
44573
44578
44582
44588
44590
44592
44597
44601
44607
44625
44634
44635
44646
44649
44650
44654
44669
44673
44689
44694
44697
44703
44711
44723
44736
44749
44767
44773
44775
44792
44793
44805
44811
44814
44850
44851
44901
44906
44941
44952
44956
44997
44998
45020
45037
45041
45064
45075
45076
45088
45091
45092
45101
45108
45110
45111
45132
45133
45140
45155
45159
45212
45216
45227
45228
45236
45256
45314
45328
45354
45355
45360
45395
45407
45418
45420
45424
45428
45429
45430
45433
45435
45436
45438
45442
45443
45445
45448
45449
45450
45458
45460
45462
45463
45471
45475
45482
45502
45529
45532
45535
45549
45575
45589
45591
45592
45593
45595
45596
45597
45598
45599
45606
45611
45613
45644
45652
45654
45659
45662
45695
45697
45719
45739
45769
45773
45775
45778
45779
45781
45792
45821
45823
45827
45851
45868
45869
45871
45875
45876
45880
45885
45901
45920
45921
45927
45961
45967
45974
45975
45996
45999
46028
46065
46084
46098
46126
46156
46161
46162
46168
46179
46180
46186
46188
46196
46197
46198
46207
46210
46213
46218
46223
46224
46226
46228
46229
46233
46238
46239
46241
46242
46246
46441
46451
46452
46458
46459
46470
46481
46482
46498
46506
46544
46547
46578
46600
46603
46719
46726
46739
46740
46741
46743
46765
46772
46795
46871
46879
46888
46900
46903
46921
46924
46929
47541
47542
47610
47617
47622
47641
47687
47699
47700
47703
47705
47706
47713
47714
47721
47723
47725
47727
47731
47735
47736
47747
47752
47753
47754
47756
47757
47758
47759
47760
47761
47763
47765
47768
47771
47772
47777
47778
47779
47780
47782
47786
47787
47788
47795
47808
47809
47821
47823
47838
47841
47845
47849
47852
47857
47864
47867
47871
47890
47894
47896
47901
47904
47916
47918
47919
47922
47929
47930
47931
47935
47940
47968
47970
47972
47979
47982
47987
47988
47990
47995
48000
48006
48011
48016
48021
48038
48041
48050
48054
48056
48058
48069
48071
48075
48080
48081
48092
48093
48100
48102
48103
48110
48111
48114
48124
48126
48128
48164
48188
48189
48193
48194
48198
48199
48201
48203
48206
48208
48224
48239
48254
48255
48256
48257
48260
48261
48265
48270
48286
48287
48291
48298
48300
48307
48322
48323
48326
48328
48332
48335
48338
48354
48356
48358
48362
48372
48379
48386
48392
48396
48397
48402
48403
48406
48409
48413
48414
48420
48428
48434
48435
48436
48437
48438
48443
48446
48447
48450
48451
48458
48461
48464
48467
48469
48488
48489
48496
48498
48501
48503
48505
48509
48513
48518
48519
48529
48531
48534
48535
48540
48541
48542
48545
48548
48549
48550
48552
48553
48554
48555
48557
48558
48562
48564
48565
48566
48567
48568
48571
48572
48577
48582
48583
48586
48592
48594
48596
48597
48600
48605
48609
48615
48616
48623
48624
48632
48640
48650
48654
48672
48673
48674
48675
48679
48684
48687
48691
48693
48696
48699
48703
48708
48711
48713
48714
48716
48719
48722
48727
48728
48734
48735
48736
48739
48744
48748
48752
48761
48762
48764
48784
48792
48794
48795
48798
48801
48802
48804
48810
48814
48823
48832
48834
48835
48840
48842
48851
48855
48860
48863
48867
48882
48883
48884
48887
48896
48897
48903
48907
48912
48915
48927
48933
48937
48951
48956
48958
48967
48968
48984
48985
48988
48994
49002
49011
49016
49020
49022
49023
49027
49028
49029
49033
49036
49038
49040
49043
49044
49045
49046
49048
49049
49051
49059
49061
49065
49081
49083
49086
49115
49122
49127
49142
49151
49167
49171
49173
49174
49180
49190
49191
49192
49193
49197
49198
49209
49216
49218
49219
49222
49227
49228
49231
49249
49257
49263
49267
49272
49274
49276
49277
49287
49295
49301
49305
49310
49317
49323
49326
49329
49330
49331
49356
49358
49364
49365
49369
49370
49372
49382
49383
49385
49393
49399
49406
49409
49410
49413
49416
49417
49418
49423
49424
49427
49428
49437
49440
49441
49442
49447
49448
49451
49452
49454
49456
49464
49466
49467
49482
49490
49492
49493
49494
49495
49500
49508
49512
49516
49517
49518
49519
49520
49542
49551
49553
49577
49578
49582
49592
49593
49595
49601
49612
49613
49617
49628
49630
49645
49646
49647
49652
49655
49660
49661
49663
49666
49667
49671
49680
49695
49699
49704
49705
49706
49709
49718
49724
49728
49730
49735
49739
49741
49743
49750
49751
49758
49759
49775
49779
49781
49785
49786
49790
49799
49821
49825
49827
49828
49831
49832
49833
49834
49837
49842
49847
49857
49882
49885
49886
49889
49898
49900
49933
49934
49947
49960
49961
49962
49971
49973
49976
49983
[ 329 ]
3008
3101
3172
3203
27373
27450
32946
32953
33255
34417
34616
37621
37637
38838
39092
39097
39106
39140
39419
39506
41894
41895
41896
41906
41957
42001
43524
43531
43534
43541
43545
43549
43617
43651
43659
43680
43715
43755
43762
43763
43776
43786
43808
43813
43824
43829
43831
43846
43848
43854
43855
43944
43968
44120
44222
44224
44266
44278
44335
44344
44357
44593
44683
44693
44698
44791
44807
45029
45057
45063
45071
45077
45086
45128
45130
45139
45142
45145
45157
45165
45166
45174
45185
45193
45218
45221
45233
45234
45235
45241
45248
45253
45257
45277
45285
45286
45287
45297
45298
45312
45325
45326
45336
45337
45338
45342
45345
45348
45369
45370
45371
45374
45375
45387
45388
45389
45393
45403
45409
45423
45447
45452
45455
45456
45464
45469
45472
45474
45476
45481
45554
45608
45617
45777
45824
45843
45847
45848
45856
45860
45861
45863
45884
45888
45889
45895
45896
45907
45911
45923
45928
45931
45939
45945
45970
45971
45973
45976
46066
46172
46201
46202
46230
46235
46237
46495
46872
46873
46874
46884
46885
46905
47535
47550
47560
47584
47585
47587
47589
47593
47597
47600
47605
47607
47629
47642
47680
47683
47692
47696
47702
47734
47740
47744
47748
47749
47750
47755
47773
47776
47854
47872
47874
47875
47889
47909
47920
47921
48002
48007
48008
48014
48024
48028
48034
48044
48045
48046
48051
48053
48055
48059
48060
48061
48064
48065
48067
48068
48070
48083
48084
48088
48090
48091
48094
48108
48168
48170
48196
48204
48222
48228
48232
48236
48238
48241
48243
48247
48253
48262
48263
48264
48267
48268
48273
48284
48290
48292
48296
48309
48311
48315
48316
48317
48318
48324
48331
48337
48357
48360
48442
48465
48468
48474
48546
48547
48560
48575
48584
48588
48626
48638
48641
48645
48671
48682
48717
48721
48724
48730
48737
48741
48749
48753
48754
48755
48765
48777
48785
48788
48790
48791
48793
48800
48805
48816
48817
48818
48821
48822
48828
48830
48836
48844
48847
48848
48862
48864
48865
48868
48869
48870
48871
48872
48874
48875
48880
48881
48886
48926
48930
48932
48948
49025
49039
49112
49145
49157
49158
49172
49201
49221
49232
49282
49283
49285
49286
49294
49314
49315
49360
49367
49368
49371
49373
49412
49425
49426
49430
49431
49432
49434
49436
49438
49444
49455
49457
49458
49462
49463
49469
49475
49496
49498
49501
49507
49521
49522
49523
49524
49525
49531
49533
49534
49540
49547
49548
49555
49556
49559
49567
49568
49571
49602
49606
49637
49648
49673
49674
49752
49753
49767
49835
49892
49985
[ 330 ]
2657
39186
39203
43498
43499
43753
43779
43784
43788
43800
43806
43810
43847
43853
44812
45033
45161
45167
45172
45179
45180
45240
45242
45244
45250
45259
45261
45268
45272
45296
45301
45303
45307
45309
45311
45315
45316
45318
45362
45376
45380
45406
45602
45604
45610
45795
45819
45854
45862
45887
45903
45914
45916
45917
45918
45940
45942
45943
46178
47558
47581
47582
47599
47602
47661
47682
47743
48004
48047
48048
48052
48085
48087
48089
48104
48213
48220
48225
48230
48242
48245
48246
48248
48271
48276
48310
48619
48643
48723
48876
48945
48953
49131
49307
49325
49362
49497
49503
49529
49901
[ 331 ]
2434
2617
2619
2628
2631
2646
42000
43533
43787
43789
43799
43801
43802
45177
45238
45239
45293
45310
45329
45332
45333
47549
[ 332 ]
2333
2435
2436
2636
2675
2680
2700
2701
2707
2720
2728
2729
45271
45291
45308
[ 333 ]
2332
2334
2676
2686
2697
2705
[ 334 ]
2267
2274
2305
2336
2339
2382
2387
2397
2398
[ 335 ]
2256
2264
2282
2287
2294
2296
2309
2324
2393
[ 336 ]
2257
2258
2262
2278
2280
2298
2384
[ 337 ]
2289
[ 352 ]
61672
[ 353 ]
8882
61661
61662
61753
[ 354 ]
8404
8408
39330
39339
39360
47286
47287
47417
47425
47437
47451
47456
47470
47471
47483
47484
47494
50029
50069
50161
50937
51522
53391
53392
53394
53395
53401
53413
55460
55463
55471
55472
55482
55494
55518
55702
55704
55710
56013
56036
56208
56220
56232
56267
60512
60606
60609
60612
60618
60623
60626
60637
60642
60995
61175
61244
61245
61246
61385
61391
61394
61400
61474
61488
61528
61543
61570
61603
61624
61682
61711
61712
61754
61758
61769
61772
61778
61791
61792
61793
61941
61978
62042
62182
62919
62943
62957
63586
63886
63982
64068
[ 355 ]
6266
6366
8403
8407
9469
16098
20157
30827
32081
32082
32084
32087
32150
34868
36007
36029
36048
36344
36433
36485
36515
36643
36864
37036
37119
37153
37191
37224
37240
37283
37369
37435
37507
37518
37926
37942
38082
38084
38339
38340
39316
39317
39320
39327
39329
39331
39333
39340
39359
39361
39364
39366
39376
39380
40711
41126
41557
41722
42415
42426
42727
42749
42758
47031
47033
47034
47035
47039
47043
47044
47045
47046
47054
47056
47060
47062
47091
47092
47113
47116
47120
47174
47187
47188
47205
47206
47211
47236
47250
47251
47255
47266
47282
47284
47290
47291
47292
47295
47303
47304
47365
47371
47387
47391
47394
47400
47419
47421
47423
47424
47426
47440
47443
47454
47457
47459
47460
47461
47463
47464
47469
47473
47489
47495
50019
50044
50048
50052
50056
50074
50094
50099
50100
50101
50110
50115
50124
50125
50126
50131
50134
50162
50170
50175
50206
50209
50211
50215
50222
50232
50247
50270
50278
50286
50303
50309
50310
50311
50313
50314
50321
50328
50335
50336
50348
50683
50688
50727
50893
50933
50944
50951
50952
50966
50992
50995
50998
50999
51006
51008
51009
51038
51043
51138
51366
51444
51525
51529
51538
51541
51550
51558
51566
51610
51633
51641
51653
51656
51660
51662
51663
51664
51667
51668
51671
51748
51752
51780
51862
51864
51872
51876
51884
51888
51889
51985
52173
53192
53396
53397
53399
53403
53418
53424
53703
53704
53862
53875
54113
54125
54242
54266
54474
54520
54537
54553
54559
54560
54569
54578
54579
54643
54666
54669
54836
54848
55451
55455
55459
55465
55466
55481
55484
55487
55492
55499
55503
55513
55517
55520
55549
55630
55632
55636
55639
55640
55641
55652
55658
55667
55668
55669
55672
55673
55678
55679
55680
55689
55690
55695
55697
55714
55741
55744
55753
55756
55996
56035
56037
56065
56122
56158
56165
56174
56184
56188
56190
56198
56209
56210
56211
56214
56219
56222
56223
56227
56233
56243
56254
56260
56264
56272
56273
57499
57742
58678
58798
60394
60513
60548
60583
60590
60601
60607
60608
60614
60615
60621
60622
60628
60629
60634
60714
61088
61116
61118
61119
61121
61123
61130
61136
61144
61148
61168
61171
61173
61174
61180
61193
61195
61203
61206
61222
61241
61247
61296
61298
61373
61377
61379
61381
61383
61386
61390
61392
61393
61411
61412
61414
61442
61470
61475
61483
61484
61487
61489
61491
61763
61773
61787
61799
61800
61803
61804
61835
61858
61861
61862
61865
61869
61875
61880
61883
61890
61892
61894
61896
61905
61906
61910
61911
61912
61913
61915
61916
61920
61921
61939
61943
61946
61947
61969
61972
61974
61995
62079
62081
62084
62085
62096
62108
62111
62112
62262
62351
62419
62433
62435
62458
62482
62498
63145
63223
63248
63261
63311
63420
63635
63959
63978
63992
64023
64040
65538
65939
66053
66057
67043
69237
[ 356 ]
4035
4097
4127
4278
5028
5447
5470
5580
5597
5598
5613
5623
5812
5900
6174
6177
6227
6268
6281
6282
6283
6289
6292
6293
6300
6303
6304
6376
6440
6475
8406
8804
8829
9210
10210
10267
10274
10284
10295
10303
10304
10310
10314
10323
10658
10689
10757
10765
10767
10768
10769
10770
10778
10796
10826
10848
10902
10904
10906
10946
10952
10996
11033
11037
11067
11068
11101
11413
11436
11452
11462
11510
11520
11529
11576
11901
12097
12105
12249
12252
12316
12327
12450
12516
12552
12643
12651
13107
14041
14220
14236
14242
14663
14793
14802
14814
14829
14836
14838
14840
14841
14842
14906
14907
14955
14999
15090
15276
15287
15336
15590
15607
15953
15961
16010
16062
16101
16106
16114
16140
16478
16640
16642
16645
16646
16647
16649
16651
16652
16653
16900
16903
16914
16943
16983
17000
17368
17371
17395
17606
18207
18210
18231
19199
19469
19474
19475
19481
19933
20121
20143
20151
20167
20174
20175
20353
20408
20491
20552
20593
20616
20639
20661
20682
20705
21059
21061
21152
21158
21177
21178
21196
21202
21248
21338
21368
21408
21456
21665
21698
21799
22050
22083
22089
22093
22104
22106
22125
22132
22133
22134
22135
22137
22143
22148
22325
22340
22461
22479
22493
22494
22518
22547
22942
23103
23105
23106
23108
23110
23111
23129
23143
23198
23210
23216
23219
23222
23227
23240
23300
23527
28734
29273
30448
30742
30759
30763
30767
30777
30778
30809
30817
30896
30945
31254
31574
32053
32058
32060
32069
32070
32076
32088
32091
32110
32112
32117
32128
32143
32145
32152
32156
32157
32158
32164
32166
32168
32179
32185
32192
32527
32667
32875
32908
33736
33750
33775
33778
33828
33890
33914
33923
33929
33935
33956
33959
33969
33977
33978
33979
33986
33998
34000
34004
34008
34022
34028
34030
34034
34041
34056
34057
34073
34090
34133
34142
34157
34174
34176
34177
34248
34263
34264
34335
34340
34346
34837
34842
34847
34849
34855
35379
35872
35882
35884
35888
35957
35971
35986
35988
35992
35995
36009
36012
36030
36031
36072
36073
36091
36099
36145
36146
36147
36181
36182
36184
36196
36207
36208
36209
36226
36234
36244
36245
36273
36277
36295
36296
36307
36315
36320
36327
36333
36348
36350
36357
36361
36362
36365
36369
36384
36387
36391
36395
36400
36403
36422
36424
36429
36434
36435
36461
36466
36471
36472
36473
36480
36483
36486
36487
36494
36507
36513
36516
36517
36521
36522
36526
36529
36530
36533
36535
36536
36537
36539
36544
36545
36546
36548
36549
36559
36560
36561
36564
36565
36568
36569
36572
36573
36574
36575
36578
36588
36595
36603
36610
36616
36622
36626
36627
36633
36634
36636
36639
36645
36646
36648
36649
36651
36652
36660
36676
36681
36682
36684
36690
36691
36694
36695
36697
36698
36701
36702
36707
36710
36712
36721
36722
36725
36735
36739
36756
36786
36789
36793
36802
36805
36814
36819
36821
36822
36824
36825
36829
36833
36834
36841
36844
36874
36875
36888
36895
36897
36899
36929
36940
36968
36971
36972
36973
36974
36987
36996
37004
37007
37012
37017
37018
37020
37022
37025
37026
37028
37031
37032
37035
37038
37046
37050
37053
37054
37059
37060
37066
37069
37071
37084
37098
37099
37103
37108
37113
37116
37118
37121
37122
37124
37131
37137
37140
37141
37143
37144
37148
37149
37152
37158
37161
37163
37167
37168
37169
37170
37174
37175
37176
37177
37185
37186
37195
37197
37198
37200
37203
37206
37207
37212
37214
37222
37232
37233
37234
37244
37255
37260
37261
37265
37267
37268
37269
37270
37272
37274
37277
37282
37284
37286
37292
37299
37301
37302
37308
37310
37311
37313
37316
37317
37318
37319
37321
37323
37326
37327
37330
37333
37334
37339
37345
37347
37348
37352
37354
37355
37359
37365
37370
37377
37379
37381
37388
37389
37391
37392
37397
37403
37441
37442
37445
37466
37468
37471
37481
37487
37491
37498
37499
37500
37501
37503
37509
37516
37517
37521
37523
37524
37525
37526
37537
37663
37670
37674
37679
37681
37683
37708
37831
37833
37840
37841
37842
37846
37847
37849
37850
37851
37854
37856
37861
37862
37863
37865
37868
37871
37872
37878
37879
37883
37886
37890
37916
37923
37924
37925
37931
37935
37943
37958
37966
37967
37971
37976
38002
38019
38063
38071
38075
38080
38083
38092
38119
38137
38142
38146
38161
38164
38180
38184
38263
38270
38273
38277
38285
38287
38290
38292
38293
38295
38301
38302
38303
38309
38310
38314
38315
38316
38317
38319
38323
38325
38335
38336
38342
38358
38361
38386
38389
38395
38401
38404
38407
38409
38418
38419
39286
39288
39292
39294
39295
39308
39321
39335
39336
39337
39343
39348
39377
39378
39379
39843
39846
39855
39864
39868
39911
40224
40235
40322
40440
40447
40483
40503
40668
40815
40907
40951
40974
41105
41138
41145
41185
41193
41237
41250
41466
41468
41477
41480
41491
41506
41509
41511
41516
41533
41554
41582
41589
41624
41630
41635
41638
41667
41699
41713
41724
41731
41740
41748
41752
41762
41764
41773
41779
41786
42097
42243
42271
42315
42324
42400
42417
42418
42435
42436
42450
42474
42504
42519
42521
42523
42524
42525
42527
42532
42537
42546
42547
42550
42571
42576
42583
42584
42587
42588
42589
42598
42602
42607
42609
42624
42627
42637
42643
42648
42669
42685
42692
42694
42705
42721
42723
42737
42740
42743
42751
42756
42757
42762
42765
42767
42780
42782
42783
42784
42788
42796
42798
42805
42806
42827
42832
42842
42852
42855
42856
42860
42864
42876
42896
42900
42903
42904
42922
42946
42958
42960
42974
42993
43002
43013
43036
43037
43045
43055
43063
43072
43095
43101
43118
43152
43387
43388
43391
44130
44478
44493
44496
46276
46368
46641
46646
47028
47036
47089
47090
47093
47096
47097
47099
47101
47108
47109
47115
47119
47123
47125
47126
47138
47157
47181
47196
47197
47199
47204
47210
47212
47214
47239
47240
47244
47247
47252
47258
47259
47263
47276
47277
47296
47298
47310
47314
47320
47321
47323
47328
47334
47341
47345
47357
47364
47367
47377
47385
47399
47401
47402
47408
47409
47412
47415
47427
47428
47499
47505
47506
50023
50034
50072
50075
50116
50121
50132
50165
50185
50199
50202
50213
50231
50237
50259
50266
50271
50274
50295
50332
50339
50547
50685
50686
50857
50882
50913
50940
50942
51557
51618
51639
51650
51857
51859
52043
52885
52886
52971
53022
53926
54129
54431
54557
55601
55782
56000
56003
56007
56011
56022
56186
61117
61135
61155
61227
61237
61297
61856
61863
61891
61918
62083
62908
62928
64879
[ 357 ]
4031
4043
4123
4133
4134
4152
4395
4628
4629
4890
4948
4984
4988
5029
5092
5126
5180
5222
5404
5424
5457
5477
5478
5479
5507
5517
5550
5558
5600
5612
5640
5701
5781
5784
5785
5790
5810
5835
5884
5891
5896
5918
5929
5948
6094
6199
6250
6277
6316
6371
6389
6416
6437
6474
6490
8202
8288
8293
8312
8414
8415
8426
8446
8667
8671
8675
8688
8698
8706
8717
8719
8720
8739
8743
8766
8791
8815
8820
8830
8848
8851
8852
8854
8973
8980
9197
9205
9209
9272
9318
9423
9425
9454
9468
9500
9521
10009
10078
10081
10103
10111
10116
10118
10120
10136
10166
10186
10196
10216
10256
10269
10278
10282
10285
10294
10301
10302
10308
10309
10317
10337
10559
10563
10634
10635
10665
10694
10712
10746
10794
10821
10829
10832
10851
10852
10856
10878
10883
10903
10909
10919
10926
10932
10933
10934
10941
10942
10947
10950
10979
10981
10991
11031
11038
11055
11056
11058
11063
11095
11102
11106
11111
11132
11164
11182
11190
11234
11267
11275
11306
11320
11323
11325
11391
11395
11404
11406
11457
11468
11471
11497
11508
11513
11518
11527
11578
11581
11604
11749
11814
11889
11890
11892
11893
11895
11898
11899
11905
11906
11909
12046
12095
12096
12111
12128
12180
12197
12199
12231
12246
12247
12250
12255
12263
12297
12317
12323
12326
12373
12415
12438
12471
12495
12529
12537
12539
12541
12545
12547
12553
12554
12561
12562
12564
12570
12597
12649
12665
12782
12792
12911
12912
12928
12929
12944
12945
12949
13002
13018
13756
13763
13764
13770
14025
14034
14038
14177
14261
14284
14289
14298
14312
14315
14321
14330
14343
14352
14631
14658
14666
14750
14766
14803
14808
14810
14843
14844
14848
14887
14901
14917
14920
14933
14957
15031
15120
15136
15147
15321
15335
15337
15341
15392
15420
15422
15454
15459
15489
15592
15620
15705
15909
15913
16050
16054
16109
16141
16142
16472
16567
16624
16628
16641
16648
16657
16661
16686
16752
16797
16854
16945
16957
16961
16979
16985
17036
17065
17080
17281
17324
17366
17373
17374
17380
17393
17394
17604
17610
17650
17880
17885
17893
17894
17900
17902
17906
18133
18136
18157
18165
18194
18203
18208
18211
18212
18238
18239
18240
18627
18784
18810
18915
18938
19157
19207
19257
19277
19347
19476
19482
19483
19495
19572
19938
19939
20163
20314
20339
20388
20424
20561
20590
20604
20614
20617
20626
20630
20637
20642
20643
20647
20651
20654
20656
20658
20660
20663
20668
20675
20678
20689
20695
20696
20717
20770
20820
21011
21021
21029
21037
21056
21066
21067
21073
21075
21088
21131
21135
21165
21197
21198
21203
21206
21211
21229
21230
21233
21244
21266
21271
21279
21287
21290
21328
21337
21351
21361
21366
21376
21382
21397
21403
21407
21413
21414
21426
21433
21451
21453
21471
21474
21517
21520
21552
21557
21560
21562
21576
21580
21606
21625
21645
21664
21676
21699
21721
21727
21741
21748
21759
21760
21763
21765
21794
21815
21818
21961
21969
21974
21976
21998
22015
22017
22036
22063
22071
22084
22085
22088
22116
22117
22122
22129
22169
22224
22269
22273
22295
22303
22324
22382
22412
22438
22445
22447
22451
22457
22462
22465
22472
22480
22488
22497
22499
22501
22502
22503
22512
22513
22514
22516
22524
22526
22537
22542
22554
22744
22790
22878
22926
22940
22941
22951
22956
23086
23087
23088
23089
23090
23091
23092
23094
23097
23098
23099
23101
23102
23104
23109
23112
23115
23117
23121
23124
23125
23128
23134
23141
23145
23148
23149
23151
23157
23158
23160
23161
23162
23164
23167
23170
23171
23172
23174
23175
23176
23177
23178
23179
23180
23187
23189
23197
23200
23201
23202
23203
23205
23212
23213
23215
23217
23224
23232
23234
23238
23239
23245
23246
23278
23281
23285
23288
23370
23424
23449
23512
23524
23533
23544
23547
23557
23578
23579
23659
23710
23804
23807
23835
23836
23888
23890
23928
24158
24171
24537
24554
24556
25813
25815
25894
27171
28457
28628
28720
28722
28725
28730
28731
28788
28929
28987
29215
29222
29224
29271
29314
29435
29757
29815
29980
29992
30288
30343
30423
30438
30440
30452
30581
30638
30707
30708
30741
30764
30784
30788
30795
30830
30839
30881
30882
30888
30890
30895
30906
30911
30914
30931
30937
30940
30946
30947
30948
30949
30954
30955
30981
30983
30985
30986
30987
30988
30994
30999
31053
31054
31055
31061
31065
31072
31075
31106
31204
31233
31235
31240
31350
31603
31604
31727
31746
31936
31944
31990
31994
32019
32048
32054
32055
32057
32059
32118
32120
32122
32126
32130
32136
32139
32147
32159
32161
32162
32163
32165
32176
32181
32182
32184
32186
32187
32190
32200
32441
32462
32502
32518
32522
32535
32570
32574
32581
32589
32590
32592
32598
32599
32601
32602
32605
32622
32623
32670
32704
32723
32737
32741
32744
32753
32756
32762
32770
32809
32819
32820
32829
32836
32839
32853
32854
32856
32867
32868
32872
32887
32889
32890
32897
32898
32900
32901
32909
33308
33311
33313
33501
33512
33728
33729
33733
33744
33745
33758
33759
33760
33762
33763
33770
33774
33776
33783
33787
33789
33797
33805
33807
33819
33821
33824
33840
33852
33853
33858
33867
33872
33873
33876
33878
33881
33882
33889
33896
33905
33909
33912
33915
33930
33931
33936
33942
33945
33949
33954
33955
33963
33967
33973
33974
33980
33981
33983
33988
33992
33994
33996
33997
34003
34007
34012
34014
34017
34018
34020
34042
34053
34054
34062
34081
34088
34114
34118
34119
34121
34122
34127
34128
34134
34139
34143
34145
34146
34147
34149
34162
34166
34172
34173
34180
34183
34186
34187
34188
34209
34241
34249
34255
34276
34277
34285
34291
34292
34297
34298
34305
34309
34318
34323
34328
34329
34330
34331
34333
34342
34344
34349
34351
34352
34360
34364
34365
34369
34392
34843
34845
34858
34859
34860
34893
34933
35080
35215
35216
35218
35242
35244
35259
35279
35329
35378
35717
35718
35733
35761
35777
35782
35805
35858
35861
35864
35873
35874
35880
35904
35930
35956
35968
35983
35991
36006
36013
36015
36020
36045
36057
36067
36069
36074
36102
36103
36104
36105
36115
36125
36126
36130
36131
36134
36137
36140
36141
36148
36152
36161
36163
36165
36170
36180
36185
36189
36190
36194
36195
36200
36203
36215
36217
36218
36220
36221
36229
36232
36233
36240
36249
36257
36260
36261
36263
36267
36268
36270
36276
36281
36287
36289
36290
36292
36299
36300
36308
36316
36324
36332
36334
36335
36336
36342
36343
36349
36353
36354
36356
36358
36363
36367
36373
36381
36382
36389
36392
36397
36398
36405
36412
36414
36415
36426
36427
36432
36452
36453
36454
36458
36460
36468
36469
36477
36482
36484
36491
36497
36498
36500
36505
36508
36520
36525
36531
36542
36550
36567
36570
36571
36576
36577
36590
36591
36596
36600
36606
36607
36608
36609
36614
36618
36631
36638
36657
36662
36664
36667
36668
36672
36693
36696
36700
36713
36714
36715
36717
36718
36720
36729
36736
36738
36742
36747
36754
36760
36761
36762
36763
36764
36767
36770
36779
36780
36782
36783
36784
36788
36790
36791
36796
36797
36813
36820
36828
36835
36852
36863
36887
36891
36901
36903
36904
36906
36910
36917
36921
36927
36931
36932
36938
36939
36949
36957
36962
36963
36964
36976
36983
36984
36986
36988
36989
36994
36995
36997
37000
37001
37005
37016
37019
37034
37039
37042
37043
37044
37045
37047
37070
37073
37079
37083
37087
37088
37095
37102
37107
37109
37111
37112
37117
37125
37130
37135
37142
37160
37162
37178
37184
37193
37201
37204
37208
37210
37218
37225
37227
37247
37252
37259
37281
37285
37306
37307
37371
37372
37380
37446
37458
37459
37462
37467
37469
37474
37475
37482
37492
37531
37547
37599
37607
37609
37659
37664
37668
37671
37676
37677
37685
37693
37697
37698
37699
37701
37703
37707
37710
37713
37717
37718
37726
37731
37740
37743
37745
37749
37768
37770
37771
37775
37779
37802
37803
37807
37810
37817
37821
37825
37836
37839
37857
37859
37864
37887
37888
37895
37898
37900
37915
37918
37919
37920
37932
37938
37940
37946
37947
37949
37957
37963
37965
37972
37982
37990
38005
38009
38020
38031
38033
38035
38036
38037
38038
38039
38056
38067
38069
38072
38073
38096
38107
38108
38123
38135
38143
38147
38157
38162
38163
38169
38172
38196
38225
38264
38266
38267
38274
38276
38283
38284
38286
38299
38305
38327
38338
38348
38349
38356
38357
38363
38365
38366
38369
38370
38371
38373
38375
38382
38387
38388
38397
38403
38405
38408
38410
38411
38412
38413
38428
38429
38432
38441
38444
38452
38466
38467
38468
38477
38478
38521
38583
38675
38736
38760
38775
38781
38782
38925
39299
39307
39334
39357
39384
39453
39652
39816
39830
39832
39833
39835
39839
39842
39851
39857
39859
39910
39914
40223
40229
40325
40370
40374
40456
40477
40505
40515
40565
40587
40596
40629
40660
40672
40676
40679
40680
40684
40699
40729
40738
40769
40776
40922
40958
41018
41019
41023
41024
41058
41078
41109
41128
41131
41136
41141
41184
41210
41251
41253
41254
41255
41261
41262
41264
41265
41267
41278
41285
41292
41319
41366
41407
41408
41471
41490
41492
41494
41505
41525
41530
41537
41572
41594
41595
41596
41604
41613
41636
41648
41650
41684
41693
41694
41766
41781
41792
41800
41835
41844
42039
42063
42095
42101
42199
42247
42279
42283
42286
42295
42301
42304
42310
42321
42322
42323
42427
42437
42438
42458
42465
42473
42479
42480
42483
42491
42492
42508
42511
42526
42548
42574
42581
42582
42603
42611
42618
42621
42626
42638
42641
42711
42719
42747
42755
42764
42804
42831
42870
42871
42878
42882
42905
42906
42920
42927
42933
42935
42937
42941
42942
42947
42949
42951
42954
42961
42964
42967
42975
42979
43001
43003
43016
43017
43020
43024
43025
43029
43035
43039
43041
43042
43044
43047
43048
43053
43056
43057
43060
43061
43066
43068
43071
43076
43077
43078
43079
43085
43087
43088
43099
43113
43114
43150
43163
43164
43166
43169
43173
43277
43282
43334
43384
44124
44131
44164
44203
44470
44477
44479
44482
44484
44485
44486
44494
44495
44501
44505
44514
44515
44854
44886
44928
44930
45116
46265
46269
46271
46274
46281
46282
46284
46297
46435
46527
46531
46532
46533
46576
46577
46617
46624
46640
46644
46658
46662
46668
46689
46700
46702
46705
46717
46733
46752
46799
46805
46821
46837
46851
46863
46965
47023
47076
47086
47102
47150
47162
47219
47232
47235
47245
47268
47269
47272
47273
47275
47316
47335
47361
47362
47363
47368
47378
47379
47382
47397
47398
47403
47404
47407
47511
47515
47519
47522
49864
52944
52997
[ 358 ]
3112
3241
3279
3351
3965
4148
4161
4258
4260
4265
4269
4498
4618
4623
4729
4877
4983
5042
5048
5054
5055
5057
5062
5064
5077
5107
5113
5146
5155
5195
5207
5219
5220
5229
5292
5371
5443
5714
5717
5783
5786
5848
5967
6109
6318
6404
6478
6496
6791
7016
7048
7563
7576
7631
7901
7987
8034
8269
8302
8303
8331
8350
8353
8442
8559
8560
8565
8668
8673
8674
8676
8680
8682
8689
8691
8693
8699
8705
8707
8708
8712
8713
8715
8718
8794
8795
8797
8835
8982
9149
9257
9273
9278
9303
9310
9399
9420
9437
9441
9487
9554
9760
9781
9800
9807
9845
9892
9950
9962
9964
9987
9994
10002
10003
10014
10023
10042
10043
10050
10051
10052
10075
10094
10098
10127
10144
10189
10200
10262
10266
10306
10326
10331
10336
10374
10453
10504
10532
10538
10539
10549
10555
10622
10623
10627
10702
10706
10717
10732
10745
10748
10861
10872
10873
10965
10974
11077
11086
11117
11125
11134
11140
11147
11151
11158
11167
11185
11187
11203
11205
11206
11210
11215
11225
11229
11230
11235
11237
11239
11240
11266
11271
11277
11285
11305
11309
11313
11322
11324
11371
11372
11377
11378
11481
11549
11732
11891
11908
12078
12210
12214
12294
12496
12531
12827
12915
12930
12933
12941
12942
12998
13010
13011
13048
13091
13205
13206
13220
13250
13253
13255
13259
13327
13357
13363
13403
13423
13447
13525
13660
13774
13865
13867
13868
13878
13882
13890
13904
13916
13960
14023
14031
14075
14089
14092
14165
14178
14359
14381
14451
14471
14501
14512
14558
14574
14655
14659
14660
14670
14671
14673
14676
14850
14988
15103
15173
15175
15179
15383
15481
15483
15495
15523
15615
15694
15702
15737
15744
15773
15905
15930
16147
16177
16179
16453
16504
16533
16573
16631
16681
16706
16708
16743
16751
16801
16833
16858
16862
16968
17109
17155
17186
17201
17208
17240
17244
17431
17439
17444
17577
17659
17695
17726
17739
17762
17797
17811
17830
17882
17898
17948
17980
17993
18130
18164
18235
18331
18701
18756
18855
18917
19067
19172
19194
19319
19341
19594
19846
19884
20110
20361
20677
20700
20741
20745
20879
20918
20977
21231
21241
21276
21298
21326
21364
21467
21583
21756
21761
21835
21848
21857
21862
21916
21949
22065
22076
22147
22149
22153
22182
22183
22208
22217
22220
22233
22248
22254
22259
22293
22297
22298
22342
22344
22361
22415
22416
22432
22433
22439
22441
22620
22623
22791
22795
22797
22801
22907
22938
22958
22965
22966
22970
22997
23016
23022
23023
23030
23055
23058
23059
23064
23069
23095
23122
23155
23156
23181
23182
23183
23190
23193
23194
23218
23225
23226
23235
23365
23448
23474
23508
23525
23531
23545
23551
23635
23661
23678
23704
23729
23736
23747
23784
23797
23803
23805
23810
23831
23838
23901
23912
23929
23931
24021
24054
24065
24082
24087
24097
24100
24118
24129
24130
24137
24138
24140
24180
24196
24230
24521
24529
24530
24531
24553
24555
24558
24745
25387
25458
25463
25470
25481
25654
25676
25696
25704
25710
25713
25745
25746
25758
25764
25767
25772
25781
25784
25786
25788
25790
25792
25810
25816
25817
25818
25819
25820
25821
25853
25878
25893
25895
25984
26205
26223
26230
26483
26489
26526
26556
26565
26674
26948
26950
27307
27562
27627
27657
27696
27740
27799
27802
27806
27813
27829
27831
27834
27854
27915
27936
27940
28072
28073
28075
28202
28241
28515
28523
28679
28707
28712
28723
28744
28796
28797
28798
28799
28800
28804
28806
28812
28813
28814
28905
28908
28909
28926
28927
28930
28934
28952
29038
29087
29097
29128
29150
29165
29195
29223
29242
29250
29254
29256
29259
29261
29263
29277
29282
29284
29298
29316
29343
29357
29358
29359
29388
29413
29418
29431
29449
29470
29546
29552
29554
29583
29661
29666
29685
29696
29742
29745
29760
29761
29767
29786
29801
29805
29807
29829
29834
29870
29889
29901
29966
29970
29993
30008
30032
30061
30077
30126
30129
30131
30151
30155
30159
30173
30180
30182
30186
30327
30336
30352
30402
30406
30407
30412
30435
30439
30460
30466
30471
30501
30502
30504
30511
30524
30538
30544
30556
30575
30578
30580
30592
30631
30648
30681
30698
30702
30803
30855
30898
30899
30909
30920
30939
30941
30956
31029
31031
31048
31058
31064
31066
31068
31073
31076
31077
31078
31079
31086
31099
31105
31108
31112
31118
31135
31157
31160
31161
31169
31181
31182
31186
31195
31199
31205
31206
31214
31220
31227
31232
31234
31237
31251
31256
31265
31267
31275
31277
31278
31284
31298
31299
31302
31303
31305
31306
31342
31356
31381
31409
31410
31419
31422
31428
31466
31476
31487
31488
31522
31530
31600
31601
31606
31655
31676
31687
31698
31732
31733
31744
31762
31767
31836
31837
31867
31935
31937
31939
31949
31963
32097
32133
32142
32214
32227
32241
32242
32244
32245
32246
32249
32250
32254
32260
32284
32328
32344
32345
32347
32381
32410
32447
32467
32472
32476
32503
32521
32536
32546
32569
32571
32580
32582
32584
32586
32593
32596
32625
32631
32633
32691
32725
32745
32747
32751
32752
32755
32758
32763
32778
32779
32784
32786
32790
32793
32795
32822
32855
32858
32864
32865
32869
32879
32881
32884
32903
32911
32912
32998
33083
33110
33111
33116
33129
33152
33161
33162
33178
33182
33198
33202
33220
33232
33295
33296
33297
33303
33305
33307
33314
33318
33321
33322
33323
33343
33354
33357
33375
33382
33385
33390
33413
33464
33465
33467
33469
33482
33485
33486
33502
33503
33504
33509
33510
33591
33611
33697
33705
33710
33749
33830
33857
33868
33899
33907
33941
33993
34006
34084
34120
34123
34129
34155
34161
34184
34304
34312
34320
34343
34350
34353
34355
34357
34367
34370
34401
34437
34630
34669
34895
34922
34977
35022
35060
35074
35076
35090
35099
35107
35115
35117
35124
35132
35217
35231
35241
35243
35311
35361
35413
35475
35490
35528
35540
35606
35624
35629
35639
35640
35665
35666
35672
35674
35691
35694
35695
35708
35714
35716
35721
35722
35723
35726
35760
35763
35794
35807
35838
35843
35847
35850
35857
35859
35869
35925
35939
35940
35945
35951
35953
35997
36058
36059
36120
36122
36128
36133
36135
36142
36155
36157
36164
36169
36173
36204
36313
36338
36413
36416
36440
36441
36442
36444
36445
36462
36554
36580
36584
36620
36632
36741
36776
36916
36943
36977
36993
37077
37106
37367
37368
37452
37454
37460
37463
37542
37561
37562
37563
37568
37569
37570
37571
37580
37594
37602
37603
37605
37643
37650
37654
37656
37657
37722
37725
37729
37739
37741
37744
37747
37748
37759
37765
37767
37772
37788
37789
37794
37799
37800
37901
37904
37908
37948
37989
37991
37994
37995
37998
38026
38034
38042
38043
38051
38055
38057
38130
38167
38185
38190
38191
38197
38208
38211
38215
38219
38220
38240
38254
38258
38271
38379
38420
38431
38433
38440
38442
38447
38450
38451
38455
38459
38460
38462
38463
38469
38473
38479
38482
38490
38491
38498
38502
38503
38506
38507
38514
38519
38523
38524
38529
38534
38576
38580
38598
38601
38602
38611
38635
38637
38656
38666
38670
38678
38685
38686
38687
38688
38693
38694
38695
38701
38702
38703
38709
38711
38720
38721
38725
38726
38727
38728
38733
38739
38748
38752
38755
38756
38759
38776
38777
38779
38793
38796
38812
38867
38915
38920
38924
38958
39032
39061
39133
39135
39303
39431
39459
39473
39624
39636
39654
39656
39658
39665
39669
39673
39677
39684
39685
39686
39688
39699
39711
39724
39732
39733
39744
39786
39821
39824
39826
39915
40048
40110
40168
40218
40261
40302
40338
40340
40363
40364
40375
40572
41085
41167
41182
41183
41256
41259
41269
41297
41329
41336
41346
41355
41356
41364
41405
41603
41607
41738
42038
42068
42092
42094
42208
42325
42330
42336
42337
42342
42620
43005
43033
43069
43073
43104
43162
43198
43204
43206
43207
43212
43232
43235
43261
43271
43279
43283
43287
43289
43297
43332
43356
43365
43378
43404
43862
43881
43882
43904
43908
44046
44162
44163
44168
44170
44171
44183
44185
44187
44196
44202
44227
44368
44369
44401
44445
44452
44456
44464
44465
44473
44474
44476
44489
44502
44503
44504
44511
44512
44523
44524
44526
44614
44663
44833
44837
44839
44853
44864
44931
44958
45012
45014
45051
45121
45415
45546
45558
45665
45995
46014
46016
46116
46216
46263
46268
46283
46302
46315
46463
46475
46477
46480
46502
46518
46529
46530
46536
46539
46548
46554
46557
46558
46563
46564
46565
46570
46572
46573
46575
46581
46593
46619
46623
46628
46629
46630
46632
46638
46643
46650
46656
46661
46676
46677
46678
46685
46693
46696
46697
46698
46735
46736
46749
46759
46760
46775
46793
46801
46807
46808
46840
46850
46853
46877
46907
46908
46916
46936
46948
46952
46953
46960
46968
46970
46975
46977
46978
46984
46987
46989
46991
47083
47084
47228
47360
47381
47521
47531
47532
48121
48417
49082
49090
49333
49339
49678
49681
49689
49867
49877
49911
49921
52959
[ 359 ]
3068
3099
3111
3117
3118
3122
3124
3138
3142
3151
3152
3154
3160
3165
3176
3193
3196
3198
3207
3209
3213
3215
3217
3222
3229
3233
3243
3245
3246
3247
3252
3255
3259
3261
3263
3353
3358
3366
3383
3389
3415
3419
3507
3539
3601
3654
3844
3936
3947
4546
4583
4589
4593
4595
4622
4637
5051
5110
5154
5186
5191
6000
6010
6046
6334
6343
6429
6552
6553
6558
6604
6642
6666
6671
6687
6694
6699
6702
6722
6723
6735
6740
6742
6747
6769
6778
6781
6783
6790
6799
6804
6810
6815
6817
6823
6838
6868
6873
6878
6891
6915
6920
6924
6930
6944
6946
6963
6964
6977
6990
7017
7021
7044
7047
7070
7082
7094
7095
7102
7114
7115
7120
7121
7125
7142
7145
7149
7152
7163
7164
7167
7169
7170
7173
7188
7190
7192
7206
7210
7211
7213
7214
7218
7220
7250
7252
7254
7268
7270
7271
7273
7277
7282
7288
7302
7305
7307
7308
7317
7326
7327
7331
7340
7349
7351
7359
7361
7392
7407
7409
7421
7426
7433
7437
7483
7491
7496
7528
7535
7545
7548
7549
7554
7558
7564
7575
7583
7587
7589
7592
7598
7601
7607
7609
7620
7649
7667
7680
7692
7695
7700
7724
7743
7747
7750
7924
7963
7983
8000
8032
8044
8086
8112
8126
8145
8150
8172
8177
8179
8192
8198
8213
8259
8291
8321
8351
8381
8441
8448
8449
8451
8454
8459
8505
8511
8517
8519
8534
8535
8541
8543
8544
8551
8556
8563
8564
8566
8568
8569
8573
8577
8578
8582
8585
8587
8589
8590
8632
8646
8648
8650
8652
8658
8677
8692
8695
8837
8996
9042
9074
9242
9279
9291
9304
9305
9430
9540
9544
9640
9676
9686
9697
9710
9713
9718
9732
9755
9765
9785
9787
9810
9811
9819
9820
9821
9867
9878
9956
9981
10024
10028
10033
10045
10049
10053
10340
10346
10354
10384
10421
10438
10439
10456
10477
10491
10492
10519
10537
10558
10674
10738
10870
11081
11118
11157
11211
11311
11317
11488
11490
12633
12695
12839
13032
13034
13089
13164
13167
13186
13195
13196
13203
13212
13217
13219
13243
13251
13276
13278
13301
13304
13312
13318
13320
13345
13348
13350
13353
13356
13384
13402
13412
13419
13424
13450
13520
13557
13565
13592
13657
13737
13818
13880
13967
13971
13975
13982
13986
13987
13996
14015
14055
14056
14073
14302
14304
14370
14425
14482
14511
14575
14600
14609
14641
14674
14705
14855
15376
15437
15516
15578
15580
15583
15631
15692
15704
15792
15801
15825
16359
16403
16494
16532
16563
16663
16664
16665
16666
16668
16671
16677
16680
16684
16689
16711
16717
16730
16735
16747
16761
16951
17136
17154
17177
17229
17230
17246
17247
17249
17410
17411
17412
17415
17416
17418
17423
17435
17507
17524
17529
17530
17541
17768
17810
17814
17827
17833
17873
17959
17965
17972
17994
18050
18113
18128
18192
18549
18607
18609
18633
18639
18668
18703
18710
18755
19191
19313
19369
19605
19622
19747
19752
20201
20242
20272
20290
20298
20742
20868
20869
20870
20876
20890
20893
20935
20938
20939
20980
21858
21859
21860
21893
21896
21897
21901
21913
21914
22066
22166
22175
22200
22234
22236
22241
22375
22378
22387
22420
22422
22423
22424
22428
22430
22640
22659
22730
22756
22757
22759
22761
22765
22766
22769
22776
22777
22778
22811
22812
22906
22962
22982
23015
23025
23027
23029
23031
23039
23040
23043
23049
23050
23057
23060
23062
23063
23066
23067
23068
23070
23076
23077
23080
23083
23085
23262
23267
23282
23328
23450
23456
23482
23669
23674
23722
23854
23858
23960
24023
24076
24084
24086
24092
24094
24098
24099
24110
24298
24318
24343
24541
24549
24565
24721
24791
25393
25464
25466
25508
25519
25523
25525
25526
25530
25572
25581
25601
25646
25652
25656
25672
25674
25675
25678
25679
25688
25691
25698
25702
25714
25716
25718
25719
25723
25725
25726
25728
25730
25732
25736
25738
25741
25747
25748
25751
25755
25756
25761
25762
25771
25773
25774
25776
25777
25787
25791
25793
25794
25795
25802
25826
25837
25839
25840
25841
25846
25848
25849
25851
25854
25855
25856
25860
25861
25867
25868
25871
25873
25875
25876
25877
25880
25881
25882
25886
25887
25888
25932
25979
25981
26035
26132
26181
26202
26203
26212
26216
26218
26221
26222
26233
26299
26420
26421
26434
26443
26460
26462
26463
26466
26469
26470
26471
26474
26475
26476
26478
26479
26482
26484
26488
26544
26555
26564
26578
26582
26590
26597
26615
26620
26643
26676
26700
26704
26721
26753
26779
26793
26876
26931
26944
26961
26972
26975
26986
26988
26990
26991
26994
26995
26997
27040
27041
27054
27092
27119
27120
27125
27150
27153
27180
27239
27255
27259
27260
27269
27311
27317
27319
27354
27356
27365
27386
27410
27424
27438
27481
27497
27498
27529
27556
27564
27567
27571
27626
27630
27667
27681
27721
27776
27785
27810
27822
27823
27837
27860
27863
27908
27932
27950
27951
27967
27968
27975
27987
27992
27998
28002
28005
28006
28012
28020
28022
28033
28034
28035
28049
28057
28083
28084
28089
28091
28099
28108
28169
28269
28280
28283
28307
28475
28492
28525
28574
28629
28633
28669
28708
28830
28911
28913
28916
28917
28922
28925
28933
28936
28943
28945
28949
28950
29082
29083
29106
29183
29331
29364
29428
29443
29457
29475
29483
29560
29563
29566
29572
29600
29603
29616
29617
29621
29622
29628
29658
29660
29683
29687
29704
29707
29715
29729
29738
29746
29779
29782
29788
29792
29802
29808
29841
29846
29849
29867
29868
29873
29903
29910
29930
29937
29947
30106
30130
30132
30147
30164
30167
30199
30347
30349
30358
30411
30477
30481
30490
30492
30497
30505
30510
30541
30543
30596
30605
30663
30664
30670
30671
30672
30674
30675
30676
30680
30683
30684
30687
30696
30697
31123
31133
31140
31148
31154
31156
31163
31170
31173
31188
31189
31190
31191
31193
31194
31196
31201
31207
31215
31228
31231
31259
31260
31261
31262
31263
31264
31266
31270
31271
31273
31274
31289
31293
31296
31297
31317
31319
31320
31323
31324
31344
31353
31385
31387
31388
31390
31391
31392
31393
31400
31404
31405
31406
31408
31412
31416
31423
31425
31453
31459
31463
31464
31465
31468
31484
31486
31490
31492
31495
31496
31500
31511
31515
31523
31526
31528
31535
31536
31539
31545
31550
31563
31632
31637
31638
31643
31657
31664
31667
31669
31675
31682
31684
31688
31690
31694
31742
31804
31810
31823
31839
31846
31850
31860
31862
31864
31877
31878
31883
31887
31895
31899
31910
31932
31933
31934
31955
31956
31957
32095
32099
32103
32210
32215
32225
32229
32235
32238
32258
32259
32264
32265
32268
32318
32324
32335
32337
32343
32346
32357
32443
32450
33014
33017
33020
33033
33045
33069
33071
33075
33078
33080
33091
33092
33094
33098
33099
33101
33102
33103
33105
33106
33108
33112
33113
33120
33123
33137
33140
33147
33154
33155
33156
33157
33168
33169
33171
33175
33176
33177
33183
33188
33189
33190
33199
33200
33204
33205
33212
33214
33224
33230
33237
33238
33240
33241
33248
33253
33259
33262
33263
33267
33276
33277
33283
33292
33293
33298
33324
33325
33326
33330
33336
33339
33340
33341
33346
33348
33352
33355
33356
33359
33361
33363
33365
33368
33369
33372
33377
33378
33380
33386
33399
33402
33403
33406
33407
33408
33409
33412
33414
33419
33424
33426
33437
33439
33449
33450
33451
33461
33462
33463
33466
33472
33473
33479
33483
33506
33531
33532
33535
33536
33537
33540
33546
33553
33555
33556
33568
33572
33589
33590
33594
33595
33597
33600
33601
33609
33610
33619
33620
33632
33633
33634
33638
33641
33643
33644
33677
33701
33703
33711
34371
34372
34377
34385
34388
34390
34395
34397
34399
34404
34405
34419
34424
34439
34451
34459
34460
34466
34473
34522
34533
34554
34557
34576
34578
34579
34591
34593
34598
34612
34613
34622
34623
34626
34647
34648
34674
34776
34777
34788
34789
34791
34806
34807
34813
34820
34821
34827
34834
34876
34964
34965
35020
35047
35081
35087
35091
35103
35109
35113
35116
35119
35126
35138
35144
35145
35152
35153
35155
35160
35161
35164
35220
35302
35362
35483
35586
35589
35618
35619
35651
35660
35667
35700
35706
35737
35738
35743
35744
35747
35748
35749
35754
35764
35765
35766
35787
35791
35809
35844
35845
35846
35849
35852
35946
36054
36379
36418
36447
37457
37546
37551
37552
37556
37575
37576
37578
37581
37584
37591
37593
37612
37614
37632
37645
37653
37902
37903
37905
37906
37907
37912
37913
38030
38058
38231
38245
38251
38256
38259
38261
38443
38458
38475
38480
38499
38527
38536
38538
38542
38552
38584
38588
38596
38600
38608
38620
38630
38650
38654
38655
38657
38658
38665
38667
38669
38706
38708
38710
38712
38719
38724
38730
38732
38734
38737
38738
38751
38766
38785
38798
38799
38806
38808
38814
38828
38829
38839
38856
38879
38905
38949
38957
38971
39030
39033
39034
39044
39050
39056
39060
39062
39063
39064
39065
39067
39072
39089
39139
39176
39390
39391
39392
39422
39425
39429
39451
39474
39481
39483
39493
39497
39498
39499
39502
39503
39518
39533
39534
39537
39538
39539
39548
39551
39553
39562
39563
39564
39566
39568
39582
39590
39591
39592
39594
39595
39612
39613
39614
39618
39619
39623
39625
39626
39627
39631
39633
39643
39644
39648
39650
39657
39667
39681
39682
39683
39691
39700
39707
39710
39715
39716
39718
39721
39726
39730
39736
39741
39742
39743
39745
39746
39752
39766
39780
39781
39785
39788
39790
39792
39807
39810
39812
39882
39899
39908
39916
39917
39918
39931
39935
39938
39944
39958
39976
39981
39982
39990
39998
40026
40027
40028
40029
40030
40042
40045
40050
40077
40102
40119
40120
40123
40124
40128
40132
40143
40145
40148
40156
40158
40161
40162
40164
40169
40170
40172
40177
40185
40201
40212
40258
40262
40337
40341
40357
40378
41168
41170
41171
41172
41179
41401
41865
41891
41902
41971
41984
42051
42052
42053
42055
42056
42338
42339
43124
43184
43185
43187
43189
43191
43192
43201
43215
43219
43220
43221
43222
43234
43236
43247
43252
43253
43272
43274
43280
43291
43347
43348
43352
43353
43372
43417
43437
43519
43635
43640
43641
43672
43729
43740
43746
43760
43839
43840
43844
43864
43874
43884
43889
43891
43892
43903
43907
43911
43913
43916
43920
43922
43983
44003
44004
44044
44056
44057
44094
44100
44106
44107
44109
44114
44115
44116
44119
44121
44138
44144
44146
44151
44156
44157
44159
44175
44176
44179
44184
44192
44193
44197
44204
44209
44213
44218
44228
44237
44239
44246
44255
44259
44262
44269
44271
44305
44307
44342
44383
44388
44389
44390
44393
44398
44402
44407
44414
44419
44423
44425
44427
44428
44432
44435
44436
44437
44438
44442
44443
44444
44467
44491
44530
44535
44536
44576
44583
44584
44595
44598
44605
44606
44618
44621
44622
44628
44632
44641
44653
44655
44699
44702
44704
44710
44726
44752
44754
44755
44804
44842
44845
44947
44964
45026
45052
45060
45067
45068
45099
45107
45113
45127
45141
45146
45148
45149
45150
45364
45391
45398
45414
45440
45461
45478
45527
45533
45586
45594
45664
45812
46022
46062
46081
46093
46209
46217
46227
46250
46259
46261
46316
46319
46380
46453
46478
46479
46497
46504
46510
46514
46519
46535
46541
46542
46545
46552
46555
46579
46583
46587
46591
46595
46598
46605
46608
46609
46614
46659
46674
46682
46722
46723
46724
46742
46744
46762
46770
46774
46780
46784
46785
46786
46787
46830
46833
46838
46856
46894
46909
46920
46928
46934
46935
46950
46961
46964
46969
46971
46973
46974
47085
47534
47538
47565
47566
47588
47623
47631
47638
47701
47708
47709
47718
47724
47737
47762
47766
47769
47812
47822
47824
47830
47843
47848
47895
47899
47906
47912
47914
47933
47941
47945
47950
47964
47978
47983
47992
47999
48076
48098
48117
48130
48144
48185
48288
48361
48370
48371
48374
48382
48385
48387
48401
48415
48416
48418
48419
48421
48425
48426
48429
48430
48432
48460
48490
48526
48539
48576
48608
48613
48649
48651
48685
48712
48770
48911
48934
48935
48936
48959
48965
48971
48980
48981
48982
48990
48991
48992
48999
49008
49041
49068
49080
49085
49091
49093
49098
49104
49116
49118
49126
49128
49140
49143
49146
49147
49153
49154
49183
49200
49202
49250
49251
49265
49268
49270
49343
49361
49375
49376
49596
49632
49685
49687
49688
49692
49717
49719
49722
49723
49744
49745
49748
49757
49762
49763
49765
49771
49773
49811
49820
49823
49839
49845
49848
49849
49850
49860
49872
49878
49880
49887
49910
49916
49917
49922
49935
49936
49938
[ 360 ]
2945
2995
3097
3098
3139
3149
3159
3173
3175
3177
3187
3188
3189
3190
3194
3195
3230
3231
3237
3248
3325
3393
3416
3540
3630
3894
4585
5990
6030
6563
6564
6567
6569
6577
6578
6587
6595
6602
6611
6612
6675
6692
6701
6716
6717
6718
6730
6732
6761
6764
6770
6774
6775
6777
6779
6780
6787
6818
6822
6869
6876
6893
6903
6904
6905
6906
6912
6951
6957
6984
6988
6995
7043
7127
7181
7184
7207
7225
7226
7227
7238
7246
7247
7279
7360
7365
7374
7377
7379
7381
7382
7413
7416
7420
7471
7537
7556
7571
7619
7627
7653
7691
7693
7723
7741
7786
7799
7800
7852
7880
7943
8038
8181
8200
8219
8236
8244
8246
8345
8370
8378
8380
8384
8461
8462
8469
8524
8545
8553
8574
8591
8604
8616
8624
8629
8633
8653
9002
9020
9575
9709
9753
9812
9818
10380
10382
10410
10414
10479
10494
10495
10496
10528
10578
11354
13165
13287
13293
13307
13314
13343
13355
13589
13963
14070
14169
14377
14437
14438
14446
14499
14867
15358
15664
15812
15902
16674
16679
17432
17512
17533
17536
17539
17849
17951
17963
18138
19808
19824
19825
20287
20866
20884
20940
21834
21867
21868
21870
21882
21909
21942
22191
22194
22195
22196
22197
22346
22374
22431
22762
22768
22993
23061
23065
23258
23265
23268
23269
23271
23731
24200
24247
24263
24317
24484
24566
24620
24709
24713
24788
24790
25476
25477
25479
25484
25499
25569
25653
25655
25664
25665
25667
25669
25670
25673
25720
25739
25782
25797
25827
25832
25833
25834
25835
25843
25864
25924
25939
25974
25976
25978
25980
26032
26059
26173
26193
26209
26211
26219
26226
26231
26236
26415
26416
26422
26423
26424
26468
26472
26473
26763
26993
26996
27016
27030
27033
27049
27059
27079
27087
27095
27100
27165
27315
27330
27331
27335
27336
27338
27355
27357
27358
27359
27367
27374
27427
27444
27446
27448
27449
27451
27453
27466
27471
27486
27508
27527
27558
27604
27697
27826
27858
27891
27910
27966
28008
28014
28070
28080
28097
28364
28903
29040
29159
29356
29425
29523
29848
29933
30165
30512
30678
30688
31063
31164
31272
31295
31424
31508
31562
31656
31670
31824
31880
31889
31971
31976
31977
32263
32299
32300
32408
33016
33097
33100
33124
33148
33172
33184
33186
33195
33229
33254
33256
33268
33271
33273
33280
33281
33287
33416
33417
33418
33423
33434
33436
33440
33452
33456
33468
33481
33519
33521
33522
33524
33534
33542
33567
33585
33635
33684
33694
34224
34375
34415
34423
34428
34434
34448
34470
34529
34568
34575
34583
34607
34610
34620
34682
34787
34795
34797
35044
35163
35658
35770
35771
35848
35867
35934
37453
37550
37554
37555
37558
37559
37573
37587
37613
37617
37620
37628
37629
37631
37634
37640
37641
37646
37647
37648
38044
38045
38651
38662
38698
38831
38833
38836
38842
38843
38847
38848
38853
38862
38875
38908
38931
38934
38972
39036
39037
39039
39040
39045
39046
39047
39055
39069
39071
39079
39080
39082
39389
39420
39421
39478
39485
39487
39491
39495
39496
39500
39504
39507
39509
39510
39513
39519
39530
39531
39535
39540
39541
39543
39570
39575
39581
39583
39584
39585
39586
39588
39589
39605
39607
39608
39610
39611
39615
39616
39639
39660
39664
39689
39694
39695
39696
39701
39705
39708
39713
39719
39722
39723
39735
39753
39756
39767
39782
39783
39939
39941
39942
39945
39953
39967
39968
39996
40003
40006
40017
40046
40056
40117
40121
40125
40127
40130
40131
40146
40147
40203
41874
41879
41916
41956
41976
41996
41999
42067
43188
43202
43320
43343
43518
43526
43528
43529
43547
43593
43610
43611
43655
43671
43675
43713
43720
43723
43733
43735
43736
43739
43750
43752
43756
43761
43766
43807
43814
43821
43826
43834
43835
43837
43845
43865
43866
43876
43900
43910
43912
43924
43925
43927
43928
43939
43960
43994
44026
44027
44090
44093
44096
44097
44117
44136
44147
44149
44155
44177
44178
44191
44206
44207
44211
44214
44234
44240
44248
44254
44257
44301
44337
44347
44395
44400
44422
44424
44430
44431
44441
44532
44533
44539
44550
44552
44559
44589
44608
44610
44624
44636
44638
44660
44684
44685
44687
44712
44720
44748
44759
44760
44810
44902
44942
45001
45019
45055
45056
45058
45062
45103
45152
45153
45160
45187
45192
45196
45203
45204
45220
45225
45327
45344
45353
45357
45358
45359
45367
45373
45416
45425
45431
45432
45434
45444
45459
45467
45590
45639
45660
45831
46017
46147
46190
46192
46466
46483
46485
46486
46500
46505
46543
46599
46602
46675
46681
46725
46763
46764
46778
46783
46880
46910
46923
46925
46926
46930
47530
47537
47544
47545
47555
47569
47577
47590
47591
47603
47618
47625
47626
47632
47636
47640
47644
47645
47646
47649
47651
47656
47658
47666
47674
47676
47689
47710
47711
47742
47770
47810
47811
47853
47856
47858
47892
47910
47913
47923
47939
47951
47952
47960
47962
47969
47971
47986
48013
48015
48033
48036
48040
48097
48116
48118
48127
48184
48207
48209
48240
48250
48252
48259
48279
48280
48281
48283
48289
48302
48306
48313
48321
48325
48329
48359
48363
48364
48365
48375
48376
48424
48439
48441
48448
48453
48470
48487
48491
48495
48524
48527
48532
48533
48537
48543
48551
48563
48578
48585
48587
48590
48591
48595
48602
48610
48614
48627
48630
48633
48648
48652
48658
48659
48660
48662
48663
48665
48667
48668
48670
48677
48680
48683
48689
48698
48701
48702
48704
48715
48725
48729
48732
48733
48738
48747
48756
48766
48780
48787
48808
48809
48826
48846
48849
48854
48856
48858
48866
48888
48890
48891
48892
48893
48895
48899
48900
48901
48902
48905
48906
48909
48916
48917
48918
48920
48924
48928
48939
48943
48946
48947
48949
48952
48955
48957
48961
48962
48963
48966
48972
48973
48977
48993
48996
49001
49003
49004
49005
49006
49007
49009
49010
49013
49014
49021
49024
49026
49034
49050
49052
49055
49060
49062
49063
49066
49067
49070
49072
49076
49089
49096
49099
49111
49114
49129
49133
49135
49136
49141
49148
49149
49150
49156
49159
49163
49170
49178
49179
49181
49185
49186
49199
49203
49205
49207
49212
49213
49214
49233
49234
49237
49246
49262
49342
49374
49377
49407
49491
49499
49557
49598
49599
49611
49631
49643
49662
49670
49676
49686
49696
49715
49731
49732
49740
49742
49754
49766
49770
49783
49836
49875
49903
50000
[ 361 ]
3009
3092
6724
6983
6985
7221
7481
7865
8352
8372
8377
8470
8472
8489
8600
8623
9866
10430
10432
13354
20937
22189
22190
24437
24444
24614
24645
24653
24696
24726
24752
24797
24873
25931
26133
26241
27034
27114
27320
27350
27445
29521
32950
33107
33274
33432
33459
33680
33683
34443
34475
37622
37635
38851
38857
39068
39085
39414
39490
39508
39511
39528
39544
39579
39602
39617
39690
39965
39995
40004
40005
41998
43515
43764
43765
43768
43773
43777
43809
43811
43819
43820
43836
43842
43843
43851
43856
43860
43872
43935
43936
43945
43988
44126
44133
44190
44268
44277
44343
44542
44543
44808
44809
44847
44848
45100
45112
45137
45144
45154
45162
45163
45182
45186
45188
45191
45205
45207
45209
45213
45219
45223
45231
45237
45278
45282
45288
45313
45324
45346
45381
45382
45390
45394
45400
45410
45412
45413
45427
45605
45637
45937
46165
46173
46175
46484
46491
46494
46496
46499
46604
46904
46927
47536
47540
47543
47547
47554
47556
47561
47562
47568
47570
47572
47574
47576
47579
47580
47586
47596
47604
47606
47628
47643
47654
47660
47662
47664
47665
47668
47669
47671
47677
47678
47681
47684
47685
47686
47688
47690
47695
47697
47698
47739
47741
47746
47751
47785
47876
47877
47878
47879
47880
48003
48018
48019
48020
48023
48027
48029
48035
48037
48042
48057
48066
48078
48095
48107
48112
48113
48212
48226
48227
48234
48235
48244
48249
48251
48269
48274
48277
48278
48282
48293
48295
48303
48304
48308
48314
48330
48334
48367
48423
48452
48463
48500
48530
48598
48599
48617
48622
48629
48636
48637
48642
48646
48656
48657
48681
48705
48707
48742
48743
48745
48751
48757
48760
48781
48782
48789
48807
48824
48837
48838
48845
48853
48857
48859
48861
48879
48885
48889
48904
48908
48910
48919
48922
48925
48940
48941
48942
48944
48950
48954
48978
49031
49053
49088
49109
49110
49137
49164
49166
49189
49194
49204
49206
49357
49435
49439
49446
49502
49532
49594
49749
[ 362 ]
2621
2726
2727
9581
23261
24640
26074
27343
27344
27345
27347
43532
43781
43783
43793
43795
43798
43805
43815
43818
43849
43857
44142
45164
45169
45170
45175
45176
45189
45215
45229
45245
45246
45258
45260
45263
45265
45269
45274
45294
45299
45302
45306
45319
45322
45323
45331
45347
45349
45385
45386
45401
45915
46493
47551
47573
47595
47598
47601
47652
47663
47745
47873
48022
48026
48049
48086
48096
48211
48221
48305
48634
48825
48873
48877
48878
[ 363 ]
2555
2607
2614
2618
2620
2626
2638
2639
2661
43780
43794
43804
45178
45232
45262
45273
45275
45280
45334
45341
45855
[ 364 ]
2342
2433
2491
2502
2623
2632
2643
2663
2673
2689
2690
2691
2698
2708
2724
43790
43791
45270
45290
[ 365 ]
2242
2243
2325
2326
2337
2340
2343
2347
2356
2365
2368
2371
2557
2682
2685
2687
2694
2695
2699
2703
[ 366 ]
2227
2247
2249
2272
2319
2369
2370
2372
2377
2386
[ 367 ]
2259
2260
2266
2281
2284
2286
2288
2292
2293
2299
2315
2380
2396
[ 368 ]
2261
2285
2307
2308
[ 384 ]
8868
8870
8877
8899
8905
8912
[ 385 ]
8873
8886
8887
8888
8890
8900
8903
8908
8914
8921
8922
8926
8927
8931
8934
8943
8944
8947
8949
[ 386 ]
8409
8864
8928
8932
8951
8952
20153
39341
39342
39363
39368
39369
47281
47285
47432
47433
47438
47444
47466
47467
47481
47482
47485
47490
50073
50168
50169
50227
53400
56207
56249
60605
60683
61127
61380
61384
61655
61713
61784
61795
61859
61873
61874
61878
61922
63341
63981
64062
[ 387 ]
4283
4314
6146
6179
6185
6187
6192
6211
6222
6223
6243
6301
6365
6375
6377
6439
8405
8862
8940
8956
8960
8965
8972
9195
10218
11453
11467
11523
15097
15274
15386
15845
16073
16921
16922
16926
16928
17342
18232
19212
19953
20154
20156
20402
21673
21805
22110
22146
22571
22676
30396
30761
30775
30814
30818
30819
32039
32073
32085
32148
33720
34234
36090
36406
36423
36771
36826
36827
37051
37192
37376
37485
38081
38313
38414
39291
39312
39314
39315
39323
39325
39328
39345
39346
39353
39354
39362
39365
39367
39853
47008
47013
47017
47021
47032
47037
47038
47042
47047
47049
47051
47052
47055
47057
47058
47059
47065
47066
47069
47070
47114
47136
47139
47175
47176
47184
47185
47190
47191
47207
47208
47213
47220
47221
47248
47264
47280
47283
47293
47300
47301
47302
47306
47307
47311
47333
47356
47370
47372
47373
47376
47386
47389
47392
47393
47413
47416
47422
47429
47430
47434
47435
47436
47446
47448
47452
47453
47458
47465
47472
47474
47475
47477
47478
47486
47488
47491
47493
47496
47500
50018
50020
50021
50026
50032
50036
50039
50042
50043
50084
50093
50104
50109
50113
50133
50154
50159
50167
50171
50172
50173
50174
50176
50181
50182
50189
50193
50194
50200
50205
50207
50221
50225
50228
50241
50245
50255
50261
50275
50276
50277
50279
50289
50292
50297
50301
50320
50327
50715
50945
50979
51172
51524
51556
51626
51658
51665
51861
51863
51866
51867
51869
51887
52042
53191
53197
53387
53388
53398
53404
53416
53432
54534
54556
54564
54574
54577
54581
54650
55441
55644
55670
55700
55998
56006
56012
56015
56018
56019
56020
56021
56025
56026
56173
56196
56201
56205
56206
56213
56228
56239
56240
56251
56259
56276
60592
60602
60603
60613
60616
60645
61146
61149
61162
61177
61196
61228
61418
61419
61471
61492
61659
61805
61855
61857
61860
61895
61898
61909
61919
61973
62082
62087
62099
62913
63510
63576
68606
[ 388 ]
4072
4117
4168
4169
4208
4212
4213
4214
4216
4235
4298
4300
4306
4307
4309
4319
4325
4326
4332
4335
4343
4355
4416
4510
4550
4561
4668
4669
4697
4700
4775
4825
4826
5403
5405
5433
5442
5449
5452
5455
5463
5469
5471
5474
5476
5514
5524
5530
5533
5534
5535
5551
5552
5556
5569
5573
5579
5584
5592
5593
5596
5604
5606
5611
5622
5624
5626
5627
5629
5630
5633
5634
5651
5663
5666
5705
5721
5725
5733
5736
5737
5745
5754
5778
5800
5805
5813
5816
5833
5875
5898
5901
5903
5904
5908
5912
5913
5914
5921
5922
5932
5933
5935
5941
5952
5960
5961
6056
6161
6167
6169
6171
6172
6173
6175
6176
6181
6184
6196
6205
6207
6208
6209
6212
6213
6216
6217
6218
6219
6221
6225
6226
6230
6235
6236
6239
6241
6242
6244
6246
6248
6254
6255
6258
6260
6261
6263
6264
6267
6269
6270
6271
6273
6275
6276
6278
6279
6280
6284
6285
6287
6291
6294
6298
6299
6302
6307
6309
6359
6362
6363
6367
6370
6373
6374
6380
6387
6401
6438
6461
6462
6473
8336
8400
8402
8760
8770
8796
8802
8803
8812
8813
8818
8827
8857
8860
8861
8967
8968
8969
8971
9193
9194
9208
9211
9212
9215
9444
9466
9506
9516
9520
9906
9907
9909
10067
10069
10082
10100
10101
10122
10131
10138
10139
10140
10141
10157
10160
10188
10197
10199
10211
10212
10213
10214
10217
10219
10220
10221
10222
10229
10231
10232
10233
10235
10238
10241
10243
10244
10245
10247
10252
10253
10254
10255
10259
10268
10270
10272
10273
10279
10281
10292
10293
10300
10305
10312
10483
10485
10487
10639
10642
10646
10652
10709
10755
10756
10759
10760
10762
10763
10764
10766
10774
10776
10782
10804
10805
10824
10825
10827
10844
10845
10847
10853
10859
10888
10897
10900
10905
10935
10944
10951
10956
10993
10994
11027
11032
11040
11044
11045
11046
11047
11048
11059
11062
11070
11092
11098
11099
11105
11133
11319
11321
11411
11414
11415
11416
11422
11423
11424
11428
11429
11430
11438
11447
11454
11461
11504
11509
11511
11512
11524
11525
11526
11528
11531
11533
11537
11539
11541
11543
11544
11554
11555
11561
11562
11575
11582
11583
11584
11587
11592
11594
11596
11599
11601
11602
11605
11610
11612
11613
11614
11619
11627
11629
11632
11633
11635
11637
11638
11639
11646
11649
11651
11653
11661
11670
11727
11733
11735
11736
11750
11753
11780
11862
11865
11887
11910
12012
12013
12021
12028
12047
12072
12087
12094
12103
12108
12109
12116
12133
12141
12162
12173
12176
12186
12196
12236
12237
12238
12254
12259
12261
12265
12277
12281
12285
12289
12303
12313
12314
12315
12319
12320
12321
12322
12328
12332
12334
12340
12341
12345
12348
12358
12385
12389
12392
12439
12442
12443
12446
12447
12455
12462
12467
12480
12481
12484
12485
12487
12491
12494
12497
12500
12507
12508
12510
12511
12520
12555
12559
12560
12563
12567
12571
12572
12601
12602
12605
12606
12608
12676
12796
12798
12799
12803
12804
12805
12806
12853
12898
12905
12920
12921
12966
12971
13004
13759
13766
14083
14084
14112
14116
14120
14121
14123
14186
14195
14199
14201
14202
14205
14211
14212
14215
14230
14234
14237
14244
14247
14262
14264
14265
14271
14272
14274
14282
14285
14295
14311
14317
14327
14329
14331
14339
14340
14347
14353
14357
14552
14644
14649
14781
14796
14797
14821
14824
14825
14827
14832
14839
14882
14886
14890
14891
14908
14909
14912
14915
14916
14932
14934
14942
14943
14944
14945
14947
14949
14950
14951
14953
14954
14956
14958
14960
14961
14962
14963
14968
14969
14976
14979
14998
15000
15062
15064
15069
15072
15082
15088
15089
15100
15101
15106
15108
15121
15245
15251
15252
15254
15257
15261
15263
15266
15268
15271
15272
15275
15278
15279
15282
15283
15284
15285
15286
15293
15296
15297
15302
15303
15304
15305
15306
15307
15310
15313
15315
15316
15325
15326
15328
15330
15331
15333
15334
15338
15339
15343
15384
15395
15396
15399
15400
15402
15405
15406
15407
15455
15593
15597
15700
15701
15848
15862
15939
15941
15942
15944
15946
15948
15952
15957
15958
15963
15965
15967
15978
15979
15981
15995
16000
16002
16007
16008
16011
16015
16018
16023
16024
16032
16033
16037
16039
16061
16064
16068
16070
16072
16080
16085
16093
16095
16096
16097
16102
16103
16111
16115
16120
16122
16130
16137
16139
16307
16477
16481
16484
16617
16638
16639
16643
16655
16658
16659
16777
16778
16796
16800
16853
16901
16902
16905
16906
16907
16908
16910
16911
16913
16919
16920
16924
16927
16929
16932
16935
16937
16939
16942
16944
16947
16948
16973
16975
16977
16978
16981
16984
16986
17012
17013
17014
17015
17027
17081
17089
17283
17286
17294
17295
17300
17306
17309
17311
17316
17318
17322
17331
17332
17334
17337
17338
17356
17358
17360
17361
17367
17369
17370
17378
17386
17390
17392
17397
17401
17403
17586
17593
17599
17603
17648
17891
18070
18074
18083
18084
18086
18096
18099
18151
18181
18196
18198
18200
18218
18222
18224
18225
18226
18227
18228
18233
18234
18774
18777
18779
18781
18786
18790
18793
18805
18806
18812
18827
18828
18832
18927
18960
19138
19141
19142
19148
19149
19202
19208
19209
19225
19226
19232
19255
19260
19261
19266
19272
19278
19281
19284
19285
19286
19462
19464
19466
19467
19477
19479
19480
19486
19487
19488
19489
19490
19491
19511
19525
19534
19540
19879
19893
19914
19932
19935
19941
19947
19954
19961
19962
19965
19967
19968
19972
19974
19975
19984
19989
20001
20014
20120
20125
20139
20141
20142
20144
20145
20146
20147
20150
20159
20160
20162
20171
20172
20321
20333
20334
20335
20343
20356
20360
20376
20391
20400
20401
20406
20407
20410
20415
20417
20418
20426
20428
20436
20444
20446
20495
20499
20500
20518
20530
20532
20534
20536
20537
20538
20539
20555
20557
20572
20588
20596
20597
20601
20636
20638
20644
20650
20662
20680
20690
20693
20694
20699
20704
20707
20708
20709
20716
21015
21016
21023
21026
21028
21049
21058
21064
21087
21094
21108
21110
21112
21113
21115
21130
21148
21150
21151
21156
21164
21187
21192
21201
21212
21227
21249
21250
21257
21305
21306
21317
21336
21340
21350
21353
21367
21372
21385
21389
21391
21415
21416
21417
21428
21435
21442
21462
21463
21468
21475
21477
21478
21479
21514
21516
21518
21523
21535
21542
21555
21568
21575
21611
21612
21628
21639
21650
21663
21685
21702
21705
21706
21707
21709
21710
21711
21716
21736
21738
21739
21740
21750
21769
21770
21774
21789
21804
21810
21811
21819
21963
21971
21988
21991
22006
22010
22012
22022
22025
22029
22033
22043
22046
22047
22049
22054
22055
22056
22062
22080
22081
22090
22092
22096
22100
22101
22103
22105
22124
22127
22139
22140
22141
22144
22145
22306
22313
22314
22315
22318
22319
22327
22330
22334
22335
22337
22338
22466
22473
22474
22482
22491
22492
22495
22496
22498
22504
22508
22517
22520
22522
22523
22529
22532
22534
22539
22541
22543
22544
22546
22552
22553
22555
22557
22561
22566
22569
22577
22578
22580
22581
22583
22586
22587
22588
22591
22592
22594
22671
22674
22677
22679
22680
22684
22685
22686
22691
22692
22693
22694
22695
22696
22934
22935
22937
22943
23137
23199
23214
23230
23231
23233
23241
23242
23249
23296
23297
23298
23301
23303
23308
23313
23391
23392
23393
23395
23396
23399
23417
23444
23501
23516
25453
25896
26397
28594
28606
28733
28741
28745
28753
28754
28764
28792
28972
28994
28995
29000
29002
29069
29115
29986
29997
30392
30393
30397
30422
30447
30449
30450
30715
30716
30718
30719
30720
30721
30725
30727
30729
30730
30731
30734
30737
30744
30760
30762
30765
30768
30770
30779
30780
30781
30786
30787
30789
30792
30800
30804
30805
30806
30808
30810
30813
30816
30820
30821
30823
30824
30825
30836
30865
30867
30877
30878
30943
30952
30958
30963
30969
30971
30974
30977
30978
30979
30980
31013
31014
31022
31025
31571
31575
31999
32006
32024
32038
32040
32041
32042
32043
32046
32047
32051
32061
32065
32066
32067
32071
32074
32075
32077
32080
32144
32151
32160
32194
33717
33721
33722
33723
33730
33731
33732
33739
33751
33752
33756
33757
33766
33769
33771
33784
33793
33794
33814
33816
33820
33841
33843
33855
33891
33900
33901
33913
33921
33924
33944
33952
33968
33972
33985
33991
34010
34013
34016
34044
34046
34048
34055
34058
34072
34086
34091
34099
34131
34152
34167
34179
34189
34190
34193
34199
34217
34231
34237
34242
34243
34244
34253
34258
34267
34268
34282
34303
34308
35444
35877
35883
35889
35891
35892
35899
35906
35907
35966
35973
35985
35996
36008
36025
36026
36027
36028
36033
36043
36077
36078
36079
36083
36084
36096
36097
36098
36110
36174
36210
36241
36242
36243
36246
36264
36274
36275
36278
36280
36283
36286
36288
36291
36346
36359
36366
36372
36374
36386
36404
36409
36410
36411
36428
36430
36481
36488
36489
36501
36502
36519
36523
36551
36562
36587
36598
36604
36605
36611
36624
36630
36637
36642
36656
36658
36669
36671
36673
36674
36686
36687
36688
36704
36705
36708
36724
36728
36731
36732
36734
36737
36745
36753
36758
36766
36768
36773
36775
36777
36778
36781
36798
36804
36816
36817
36818
36823
36830
36831
36832
36842
36845
36847
36851
36858
36862
36865
36867
36871
36873
36876
36877
36878
36896
36909
36912
36913
36925
36952
36965
36969
36975
36979
36982
37002
37008
37010
37013
37021
37023
37024
37029
37030
37037
37052
37056
37072
37110
37114
37115
37145
37146
37147
37154
37156
37173
37181
37182
37190
37199
37209
37213
37215
37216
37220
37221
37226
37230
37231
37246
37300
37315
37341
37342
37344
37349
37351
37358
37361
37362
37363
37366
37378
37384
37385
37386
37387
37390
37404
37411
37412
37414
37417
37418
37425
37429
37431
37433
37434
37440
37443
37465
37473
37477
37478
37479
37480
37483
37484
37488
37489
37493
37494
37495
37496
37497
37502
37505
37506
37508
37512
37527
37528
37529
37532
37678
37682
37704
37834
37843
37853
37855
37858
37866
37874
37875
37876
37880
37885
37889
37893
37922
37930
37936
37937
37939
37952
37955
37961
37968
37969
38065
38145
38262
38275
38278
38279
38280
38289
38291
38294
38297
38300
38341
38352
38359
38385
38406
38415
38416
38417
39284
39287
39289
39293
39297
39300
39306
39310
39313
39318
39319
39322
39326
39347
39349
39350
39351
39355
39370
39373
39375
39381
39836
39844
39849
39852
39854
39865
39872
41290
41499
41512
41795
42303
42460
42533
42545
42628
42653
42688
42877
42923
42936
42943
42959
43049
43054
43067
43086
44499
46266
46366
47000
47004
47009
47014
47026
47027
47030
47068
47071
47074
47075
47077
47094
47095
47098
47110
47111
47117
47122
47124
47127
47128
47129
47130
47131
47132
47134
47135
47137
47140
47142
47144
47145
47149
47158
47159
47161
47166
47167
47169
47173
47177
47178
47182
47183
47186
47193
47223
47225
47226
47231
47234
47237
47246
47253
47260
47261
47262
47265
47270
47279
47297
47299
47312
47317
47318
47319
47322
47339
47340
47346
47347
47352
47358
47359
47369
47375
47384
47405
47414
47497
47501
47504
50047
50080
50127
50148
50151
50166
50192
50220
50262
50264
50265
50268
50273
50281
50291
50317
50331
50334
50932
51851
51852
51877
53402
53420
54519
54563
54565
54567
54575
54576
56014
56023
61124
61867
61942
62086
62104
[ 389 ]
3457
3459
3465
3477
3480
3482
3496
3502
3518
3833
3974
3975
3985
4023
4025
4033
4034
4037
4042
4054
4067
4068
4069
4070
4078
4079
4080
4094
4096
4103
4108
4114
4121
4124
4125
4128
4130
4149
4150
4153
4154
4155
4159
4164
4165
4167
4182
4186
4198
4200
4205
4217
4234
4236
4237
4239
4241
4243
4245
4249
4256
4257
4259
4263
4268
4272
4276
4277
4280
4295
4303
4312
4331
4357
4369
4372
4373
4381
4387
4388
4389
4390
4406
4412
4458
4460
4463
4466
4499
4508
4519
4551
4552
4554
4557
4558
4563
4617
4619
4620
4621
4626
4627
4633
4638
4641
4667
4671
4692
4699
4704
4734
4744
4749
4754
4761
4777
4781
4786
4798
4803
4804
4807
4808
4813
4818
4819
4841
4859
4860
4876
4880
4881
4902
4919
4930
4944
4945
4947
4949
4961
4968
4969
4976
4977
4978
4979
4980
4986
4990
4991
4993
5004
5006
5035
5036
5043
5061
5071
5093
5097
5098
5105
5123
5128
5131
5132
5143
5175
5176
5184
5189
5194
5196
5199
5201
5202
5204
5209
5237
5252
5267
5268
5283
5286
5306
5316
5321
5334
5344
5349
5352
5370
5382
5383
5395
5399
5402
5409
5420
5423
5425
5427
5428
5429
5430
5431
5436
5440
5441
5444
5445
5446
5448
5454
5456
5459
5460
5465
5466
5472
5473
5475
5480
5481
5482
5486
5490
5491
5501
5502
5503
5504
5510
5511
5515
5519
5520
5521
5526
5528
5531
5541
5542
5546
5548
5549
5553
5554
5557
5560
5561
5562
5568
5570
5571
5575
5586
5588
5589
5591
5595
5599
5602
5608
5609
5615
5616
5621
5628
5636
5638
5639
5642
5647
5648
5650
5658
5662
5669
5678
5681
5683
5685
5689
5690
5695
5696
5698
5699
5700
5702
5704
5707
5710
5712
5716
5720
5722
5723
5726
5729
5739
5740
5741
5742
5748
5750
5751
5757
5758
5759
5761
5768
5769
5771
5775
5776
5779
5780
5782
5788
5789
5792
5793
5794
5796
5804
5806
5807
5811
5817
5818
5821
5822
5823
5826
5827
5830
5832
5838
5842
5847
5849
5852
5853
5854
5855
5856
5861
5862
5865
5869
5872
5873
5877
5880
5881
5882
5887
5888
5889
5892
5893
5897
5906
5907
5911
5926
5930
5939
5940
5942
5943
5947
5957
5959
6054
6062
6065
6079
6092
6095
6097
6098
6099
6103
6107
6112
6123
6124
6131
6200
6210
6214
6220
6232
6249
6251
6295
6296
6308
6311
6313
6314
6315
6317
6319
6330
6342
6356
6360
6369
6378
6381
6382
6384
6386
6388
6390
6391
6392
6393
6395
6398
6399
6408
6409
6421
6430
6432
6433
6434
6444
6446
6452
6453
6454
6456
6457
6458
6466
6467
6468
6471
6476
6484
6486
6500
6501
6506
6507
6508
7988
7989
7992
8205
8296
8298
8299
8305
8307
8316
8329
8338
8339
8354
8392
8393
8394
8395
8413
8423
8425
8445
8558
8561
8663
8665
8666
8669
8670
8690
8704
8714
8722
8723
8725
8728
8731
8732
8733
8735
8736
8750
8751
8752
8755
8757
8758
8759
8762
8763
8764
8775
8778
8779
8780
8781
8784
8786
8788
8789
8792
8799
8801
8805
8806
8807
8809
8810
8817
8821
8822
8823
8824
8825
8826
8828
8847
8849
8855
8856
8859
8976
8979
9164
9177
9178
9180
9189
9190
9198
9200
9202
9203
9204
9206
9207
9231
9232
9258
9269
9281
9312
9319
9321
9322
9324
9370
9381
9415
9427
9436
9438
9446
9447
9450
9456
9462
9470
9473
9474
9485
9486
9488
9489
9490
9494
9495
9496
9501
9503
9510
9511
9515
9517
9518
9519
9523
9524
9598
9758
9794
9841
9842
9899
9902
9903
9904
9905
9908
9910
9913
10012
10013
10016
10019
10055
10060
10062
10064
10066
10070
10073
10074
10076
10077
10079
10083
10087
10088
10089
10090
10091
10093
10095
10096
10097
10099
10104
10106
10107
10109
10110
10112
10114
10115
10119
10121
10124
10125
10126
10128
10129
10133
10134
10135
10137
10142
10143
10145
10146
10147
10148
10149
10150
10154
10158
10159
10165
10172
10173
10174
10177
10178
10179
10180
10182
10183
10184
10190
10191
10195
10203
10204
10226
10227
10228
10240
10246
10250
10257
10261
10271
10275
10276
10277
10280
10283
10286
10290
10291
10296
10298
10299
10313
10315
10318
10319
10320
10322
10324
10325
10482
10484
10488
10500
10542
10573
10608
10629
10636
10638
10641
10643
10645
10647
10650
10651
10654
10655
10657
10659
10660
10662
10686
10690
10691
10693
10696
10701
10705
10708
10710
10711
10720
10731
10742
10747
10749
10750
10758
10761
10772
10775
10777
10779
10781
10786
10787
10788
10789
10790
10791
10792
10795
10798
10799
10800
10801
10802
10803
10806
10808
10809
10813
10815
10817
10818
10819
10822
10828
10830
10831
10834
10835
10836
10837
10838
10840
10842
10843
10849
10854
10855
10857
10858
10860
10862
10864
10874
10879
10881
10882
10885
10886
10889
10892
10894
10895
10896
10898
10899
10901
10907
10908
10910
10911
10915
10916
10917
10921
10922
10923
10924
10925
10927
10929
10930
10931
10936
10937
10938
10939
10940
10943
10945
10948
10949
10954
10958
10959
10963
10970
10971
10980
10986
10987
10988
10990
11004
11014
11024
11026
11028
11029
11030
11034
11036
11042
11050
11052
11054
11057
11060
11061
11064
11065
11069
11073
11075
11084
11088
11091
11093
11094
11096
11097
11104
11107
11108
11112
11113
11114
11120
11127
11128
11129
11130
11131
11135
11136
11137
11145
11150
11170
11173
11174
11189
11191
11198
11199
11204
11218
11238
11241
11242
11243
11245
11249
11250
11257
11263
11268
11269
11279
11304
11327
11336
11374
11375
11387
11388
11389
11394
11403
11407
11409
11418
11419
11420
11426
11431
11437
11439
11440
11445
11459
11460
11463
11464
11465
11478
11495
11498
11499
11500
11501
11505
11506
11507
11514
11515
11517
11519
11522
11530
11534
11542
11545
11550
11551
11564
11572
11573
11577
11585
11586
11593
11595
11597
11598
11600
11603
11608
11617
11623
11624
11626
11640
11643
11645
11666
11671
11675
11679
11703
11704
11707
11728
11730
11731
11734
11751
11752
11754
11755
11756
11775
11788
11797
11810
11811
11812
11815
11816
11823
11845
11846
11847
11848
11850
11852
11853
11856
11857
11861
11863
11869
11870
11874
11878
11879
11880
11881
11882
11886
11888
11894
11896
11897
11902
11904
11907
11911
11929
11934
11935
11950
11969
11972
11983
12000
12006
12007
12009
12015
12017
12019
12024
12026
12037
12040
12041
12043
12044
12048
12049
12050
12051
12055
12059
12060
12061
12063
12067
12071
12074
12077
12079
12081
12082
12083
12084
12086
12089
12098
12099
12100
12101
12106
12107
12110
12112
12115
12117
12119
12120
12121
12122
12123
12124
12125
12127
12132
12135
12137
12138
12140
12143
12145
12146
12148
12149
12150
12151
12153
12156
12157
12158
12161
12169
12170
12171
12175
12177
12178
12179
12181
12182
12184
12185
12187
12188
12191
12198
12201
12203
12204
12205
12208
12211
12212
12213
12215
12216
12217
12220
12221
12222
12223
12226
12234
12239
12240
12241
12242
12248
12253
12256
12257
12258
12260
12262
12264
12266
12267
12268
12269
12270
12271
12272
12273
12275
12278
12279
12280
12282
12284
12286
12287
12288
12290
12291
12292
12293
12296
12299
12300
12301
12302
12305
12306
12308
12310
12311
12324
12325
12329
12330
12331
12333
12337
12338
12342
12343
12347
12350
12354
12356
12367
12370
12372
12374
12376
12377
12378
12381
12382
12383
12390
12394
12410
12411
12413
12416
12418
12419
12420
12423
12424
12426
12427
12429
12431
12432
12434
12435
12436
12440
12441
12444
12445
12449
12454
12456
12457
12458
12459
12460
12461
12463
12464
12465
12466
12469
12472
12473
12475
12476
12478
12483
12498
12501
12502
12503
12506
12509
12513
12515
12519
12521
12522
12524
12525
12528
12530
12532
12536
12538
12540
12542
12546
12548
12550
12557
12565
12566
12577
12583
12585
12590
12593
12595
12599
12604
12609
12618
12620
12621
12626
12646
12648
12650
12652
12653
12657
12662
12669
12677
12678
12686
12689
12694
12700
12704
12706
12708
12711
12713
12778
12781
12783
12784
12785
12787
12789
12793
12800
12802
12807
12808
12810
12815
12816
12857
12881
12885
12886
12895
12897
12899
12902
12903
12906
12922
12923
12926
12937
12939
12943
12946
12948
12951
12952
12953
12955
12967
12969
12970
12978
12985
12992
12995
13001
13003
13005
13006
13007
13008
13017
13098
13100
13101
13104
13106
13229
13338
13359
13378
13443
13444
13463
13760
13761
13762
13767
13768
13771
13772
13776
13777
13856
13887
13917
13972
14018
14019
14020
14021
14022
14024
14032
14035
14036
14037
14039
14040
14043
14045
14046
14079
14082
14086
14087
14088
14090
14093
14102
14106
14107
14109
14110
14113
14118
14119
14124
14176
14182
14187
14189
14191
14207
14208
14213
14216
14218
14219
14223
14224
14229
14231
14232
14233
14235
14240
14243
14245
14246
14248
14252
14253
14259
14263
14267
14270
14283
14288
14290
14293
14296
14301
14306
14307
14309
14313
14316
14318
14320
14322
14323
14324
14325
14326
14332
14333
14334
14335
14336
14337
14342
14344
14345
14346
14348
14349
14350
14351
14355
14356
14358
14360
14383
14418
14522
14538
14543
14548
14557
14565
14567
14647
14648
14650
14653
14662
14664
14668
14669
14772
14775
14778
14779
14782
14783
14785
14787
14788
14790
14799
14800
14804
14805
14811
14812
14826
14828
14833
14834
14835
14837
14847
14849
14881
14883
14885
14893
14897
14899
14902
14913
14914
14921
14925
14928
14930
14935
14936
14938
14974
14975
14977
14978
14980
14981
14984
14991
14996
14997
15005
15011
15013
15015
15022
15029
15030
15073
15077
15084
15086
15087
15093
15098
15104
15105
15107
15111
15114
15115
15127
15130
15132
15140
15141
15146
15152
15169
15172
15177
15246
15247
15249
15253
15267
15277
15288
15289
15290
15291
15292
15295
15299
15300
15301
15311
15312
15318
15319
15320
15323
15324
15342
15344
15346
15347
15370
15391
15394
15401
15403
15412
15417
15418
15426
15428
15429
15430
15431
15433
15436
15452
15456
15457
15461
15472
15589
15591
15594
15595
15596
15598
15605
15608
15609
15611
15613
15616
15618
15619
15621
15624
15696
15697
15706
15707
15708
15709
15711
15714
15716
15718
15719
15721
15723
15724
15726
15729
15730
15731
15742
15843
15850
15852
15853
15854
15855
15856
15857
15858
15859
15860
15868
15907
15908
15910
15911
15915
15921
15923
15929
15943
15945
15949
15954
15955
15959
15960
15964
15980
15991
16014
16016
16025
16026
16027
16031
16034
16041
16043
16047
16048
16049
16051
16052
16053
16055
16056
16057
16058
16059
16060
16063
16065
16067
16076
16079
16083
16084
16088
16090
16091
16092
16099
16108
16112
16113
16119
16126
16127
16131
16132
16136
16172
16173
16176
16178
16192
16195
16197
16198
16200
16208
16310
16388
16390
16393
16397
16402
16449
16471
16474
16485
16489
16492
16493
16506
16524
16530
16531
16541
16551
16556
16566
16568
16593
16596
16600
16602
16611
16614
16615
16622
16625
16632
16636
16637
16644
16656
16660
16705
16754
16757
16763
16765
16772
16773
16775
16794
16795
16798
16799
16810
16813
16814
16837
16850
16864
16872
16880
16892
16893
16898
16899
16958
16959
16962
16967
16970
16971
16980
16988
16994
16996
17010
17011
17017
17020
17021
17022
17023
17024
17025
17026
17031
17033
17035
17037
17043
17046
17049
17054
17056
17058
17062
17063
17067
17071
17077
17078
17082
17083
17086
17096
17097
17099
17207
17275
17278
17285
17287
17288
17292
17297
17298
17305
17312
17315
17317
17319
17325
17327
17329
17333
17336
17343
17357
17364
17372
17376
17377
17379
17381
17383
17385
17388
17389
17391
17399
17404
17405
17545
17565
17570
17571
17572
17574
17579
17580
17582
17583
17584
17587
17591
17594
17596
17608
17612
17613
17614
17615
17623
17627
17628
17629
17630
17632
17636
17637
17638
17639
17640
17642
17643
17645
17649
17654
17656
17658
17666
17674
17679
17687
17690
17691
17693
17700
17702
17879
17881
17886
17890
17892
17903
17905
17907
17974
17979
18059
18066
18069
18071
18073
18076
18078
18079
18082
18087
18090
18091
18092
18093
18094
18095
18097
18100
18118
18132
18139
18150
18153
18154
18156
18158
18160
18161
18166
18168
18169
18175
18177
18178
18180
18183
18184
18185
18186
18189
18193
18197
18199
18201
18202
18204
18205
18206
18209
18215
18220
18221
18229
18236
18237
18251
18268
18269
18324
18433
18434
18435
18455
18459
18467
18468
18475
18505
18511
18517
18520
18525
18526
18529
18531
18764
18766
18768
18769
18770
18778
18782
18783
18785
18787
18789
18792
18795
18807
18808
18809
18811
18814
18815
18816
18819
18820
18821
18822
18824
18825
18829
18830
18831
18840
18892
18898
18899
18900
18908
18910
18911
18914
18919
18920
18922
18923
18930
18944
18947
18949
18953
18954
18956
18957
18961
18963
18968
18977
18980
18981
18994
18995
18996
18997
18999
19003
19005
19006
19009
19012
19014
19036
19049
19052
19058
19065
19099
19118
19128
19137
19143
19146
19151
19152
19161
19162
19164
19168
19183
19195
19197
19198
19200
19201
19204
19205
19206
19214
19224
19227
19228
19229
19230
19231
19247
19250
19251
19253
19264
19269
19273
19276
19288
19292
19301
19302
19303
19304
19307
19326
19344
19346
19350
19424
19465
19468
19470
19472
19473
19484
19485
19498
19500
19503
19505
19506
19512
19513
19524
19527
19533
19535
19542
19545
19549
19564
19573
19577
19582
19591
19592
19593
19602
19609
19613
19695
19703
19706
19732
19849
19859
19862
19863
19864
19866
19871
19872
19873
19874
19875
19877
19881
19882
19885
19888
19895
19909
19911
19912
19915
19919
19929
19936
19937
19946
19948
19949
19966
19986
19987
19988
19991
19992
19993
19996
19998
20010
20025
20030
20070
20108
20109
20111
20112
20115
20116
20117
20123
20124
20130
20135
20136
20138
20149
20155
20161
20165
20166
20169
20170
20173
20233
20318
20319
20323
20324
20329
20332
20337
20338
20341
20342
20345
20346
20348
20350
20351
20352
20354
20355
20357
20358
20359
20362
20363
20364
20370
20371
20373
20382
20383
20389
20390
20393
20396
20397
20399
20403
20404
20409
20411
20413
20419
20420
20423
20425
20427
20432
20433
20434
20448
20449
20451
20455
20462
20463
20464
20465
20472
20473
20480
20481
20486
20487
20488
20489
20490
20492
20493
20494
20496
20502
20506
20507
20510
20511
20513
20514
20516
20526
20527
20529
20533
20535
20540
20541
20543
20550
20551
20553
20556
20559
20560
20562
20563
20565
20567
20570
20574
20577
20581
20589
20591
20592
20594
20595
20598
20599
20603
20605
20606
20607
20608
20610
20611
20613
20615
20618
20619
20620
20621
20622
20623
20624
20627
20628
20631
20632
20633
20634
20640
20641
20657
20659
20664
20665
20666
20667
20669
20672
20674
20676
20679
20683
20686
20687
20688
20691
20692
20697
20698
20706
20710
20712
20714
20715
20718
20720
20722
20723
20731
20748
20775
20778
20797
20807
20815
20817
20843
20844
20846
21004
21006
21007
21008
21009
21010
21012
21013
21019
21020
21022
21024
21025
21027
21031
21032
21034
21035
21038
21040
21041
21042
21044
21045
21048
21050
21051
21052
21053
21055
21057
21060
21062
21063
21065
21068
21069
21070
21071
21072
21074
21076
21078
21081
21082
21083
21085
21089
21090
21091
21093
21096
21098
21099
21101
21104
21105
21111
21116
21118
21119
21122
21125
21126
21127
21128
21129
21132
21134
21136
21137
21138
21139
21140
21141
21142
21143
21146
21153
21154
21157
21163
21167
21168
21169
21170
21171
21172
21175
21179
21184
21185
21186
21188
21191
21193
21194
21195
21199
21200
21204
21205
21208
21209
21210
21213
21215
21217
21218
21219
21221
21224
21225
21226
21228
21232
21234
21237
21242
21243
21245
21247
21251
21252
21253
21254
21255
21256
21258
21259
21260
21261
21262
21263
21265
21267
21268
21272
21274
21278
21280
21282
21283
21285
21289
21292
21293
21295
21296
21297
21302
21303
21308
21309
21310
21311
21312
21313
21315
21316
21319
21320
21321
21322
21324
21327
21330
21332
21334
21335
21339
21342
21344
21345
21346
21348
21349
21355
21356
21357
21358
21360
21365
21369
21370
21371
21373
21374
21375
21377
21378
21379
21380
21381
21384
21386
21387
21388
21390
21392
21393
21394
21395
21396
21399
21400
21401
21402
21404
21406
21411
21412
21420
21421
21422
21424
21425
21429
21430
21431
21436
21438
21439
21440
21441
21443
21444
21448
21449
21450
21452
21454
21455
21461
21464
21465
21466
21470
21472
21473
21476
21480
21481
21488
21491
21515
21519
21521
21524
21525
21526
21527
21528
21529
21530
21531
21532
21534
21536
21538
21539
21540
21541
21543
21544
21545
21547
21548
21549
21550
21554
21556
21558
21559
21563
21564
21565
21566
21567
21569
21570
21571
21572
21573
21574
21589
21590
21592
21594
21597
21598
21600
21601
21602
21603
21604
21605
21607
21609
21610
21614
21616
21617
21618
21619
21621
21622
21623
21624
21629
21631
21632
21633
21634
21636
21637
21641
21642
21643
21644
21647
21648
21649
21651
21652
21658
21660
21662
21669
21670
21671
21684
21686
21687
21688
21689
21690
21693
21694
21696
21697
21700
21701
21703
21704
21708
21712
21715
21717
21718
21720
21724
21725
21726
21729
21730
21731
21732
21733
21734
21735
21742
21743
21744
21745
21746
21747
21749
21753
21762
21764
21767
21771
21772
21775
21776
21777
21778
21780
21783
21785
21788
21790
21791
21793
21796
21800
21806
21809
21813
21816
21817
21820
21821
21839
21840
21924
21925
21927
21928
21932
21933
21934
21947
21948
21950
21955
21960
21964
21965
21966
21967
21968
21970
21972
21973
21975
21977
21978
21979
21981
21984
21985
21987
21989
21990
21993
21995
21996
21999
22000
22003
22008
22009
22011
22013
22018
22019
22020
22021
22026
22027
22028
22030
22032
22038
22040
22042
22044
22045
22051
22052
22057
22060
22061
22072
22074
22075
22077
22078
22082
22086
22087
22091
22095
22097
22099
22102
22107
22118
22119
22120
22123
22128
22130
22131
22138
22156
22161
22210
22211
22231
22262
22263
22277
22285
22296
22302
22307
22308
22309
22310
22312
22316
22317
22320
22321
22322
22326
22329
22331
22336
22339
22357
22364
22379
22402
22404
22407
22408
22418
22434
22435
22437
22444
22446
22448
22449
22453
22455
22464
22470
22471
22475
22478
22481
22483
22484
22485
22486
22489
22490
22500
22505
22507
22509
22510
22511
22515
22519
22521
22525
22527
22528
22530
22531
22533
22535
22536
22540
22548
22551
22558
22560
22562
22563
22564
22567
22568
22570
22579
22589
22607
22648
22653
22669
22681
22682
22742
22802
22916
22917
22920
22921
22923
22924
22925
22927
22928
22929
22930
22931
22932
22933
22936
22939
22945
22947
22948
22950
22952
22953
22959
22960
23096
23100
23113
23114
23116
23118
23120
23123
23130
23131
23132
23133
23135
23136
23138
23139
23140
23142
23144
23146
23150
23159
23166
23168
23173
23184
23186
23196
23206
23207
23208
23211
23220
23221
23223
23228
23229
23236
23237
23243
23247
23248
23275
23276
23277
23279
23280
23283
23284
23289
23292
23293
23294
23299
23302
23304
23305
23306
23307
23309
23311
23314
23316
23318
23326
23335
23348
23369
23379
23382
23384
23385
23389
23390
23403
23407
23409
23411
23422
23423
23428
23429
23430
23435
23438
23440
23443
23445
23454
23455
23468
23469
23470
23472
23479
23480
23481
23484
23485
23489
23504
23506
23507
23514
23517
23518
23519
23523
23530
23534
23536
23539
23540
23541
23555
23559
23560
23568
23575
23580
23583
23585
23598
23614
23625
23643
23646
23690
23693
23706
23714
23721
23727
23734
23780
23783
23791
23800
23806
23809
23816
23826
23829
23833
23839
23840
23845
23847
23849
23870
23872
23878
23885
23887
23893
23894
23900
23902
23909
23914
23921
23923
23933
23934
23937
23939
23941
23957
24095
24115
24124
24127
24133
24156
24176
24177
24178
24522
24523
24532
24533
24535
24536
24557
25451
25452
25454
25455
25457
25760
25811
25812
25897
26031
26318
26369
26372
26386
26401
26404
26500
26510
26541
26633
26637
26757
28077
28195
28240
28252
28253
28360
28536
28537
28543
28580
28581
28592
28598
28604
28605
28612
28615
28636
28643
28691
28718
28721
28742
28752
28756
28757
28759
28760
28761
28762
28765
28768
28771
28772
28773
28808
28820
28846
28849
28867
28868
28955
28960
28966
28974
28986
28988
28989
28990
28991
28997
28998
29015
29019
29021
29022
29024
29029
29031
29046
29059
29060
29061
29062
29063
29070
29071
29072
29074
29075
29108
29117
29131
29182
29191
29192
29193
29197
29214
29219
29225
29269
29276
29281
29303
29310
29360
29379
29394
29397
29399
29400
29541
29573
29575
29589
29602
29613
29638
29639
29652
29667
29719
29720
29725
29744
29803
29804
29812
29825
29881
29882
29948
29949
29952
29965
29969
29979
29981
29983
29984
29985
29987
29988
29996
29998
30000
30002
30003
30004
30007
30041
30072
30103
30127
30143
30144
30145
30146
30150
30177
30187
30195
30216
30225
30228
30255
30264
30290
30293
30306
30329
30346
30351
30371
30394
30395
30398
30400
30401
30416
30417
30418
30419
30421
30424
30430
30431
30432
30433
30434
30436
30443
30503
30539
30622
30649
30713
30714
30723
30726
30728
30732
30733
30739
30745
30746
30748
30752
30753
30758
30771
30772
30774
30776
30782
30785
30790
30791
30798
30799
30802
30815
30822
30828
30829
30832
30843
30846
30850
30856
30857
30860
30861
30864
30866
30869
30870
30874
30876
30883
30886
30887
30889
30891
30892
30893
30894
30900
30902
30903
30907
30910
30912
30913
30916
30917
30918
30919
30925
30926
30927
30928
30930
30932
30933
30934
30935
30936
30938
30944
30953
30959
30962
30964
30966
30970
30984
30990
30991
30993
30997
30998
31000
31002
31003
31005
31007
31012
31015
31018
31019
31020
31021
31027
31032
31033
31034
31037
31045
31050
31051
31052
31103
31111
31146
31213
31242
31253
31279
31281
31373
31380
31475
31556
31570
31572
31580
31618
31619
31692
31700
31701
31708
31715
31720
31723
31926
31950
31991
31992
31993
31995
31996
31997
32000
32002
32003
32004
32005
32014
32015
32020
32022
32025
32027
32031
32032
32033
32045
32056
32068
32094
32098
32131
32167
32177
32188
32528
32575
32587
32591
32603
32604
32628
32743
32791
32802
32870
32877
32878
32880
32883
32893
32907
33310
33317
33490
33492
33514
33716
33735
33737
33738
33746
33748
33754
33761
33764
33765
33767
33768
33773
33777
33779
33780
33782
33786
33788
33795
33800
33802
33803
33804
33806
33808
33810
33811
33812
33813
33815
33817
33818
33822
33823
33829
33832
33833
33834
33835
33836
33838
33846
33849
33850
33851
33856
33859
33860
33861
33874
33875
33879
33880
33883
33885
33886
33888
33893
33897
33902
33906
33908
33910
33911
33922
33925
33926
33932
33937
33938
33939
33940
33946
33947
33948
33951
33953
33957
33965
33970
33971
33975
33976
33989
33990
33995
33999
34001
34002
34023
34024
34029
34031
34032
34038
34039
34043
34059
34064
34065
34066
34069
34070
34071
34074
34075
34077
34078
34080
34083
34089
34092
34096
34111
34112
34113
34115
34116
34117
34125
34126
34132
34135
34136
34137
34148
34154
34156
34159
34160
34165
34168
34171
34175
34178
34181
34185
34192
34198
34203
34204
34205
34207
34210
34215
34226
34227
34229
34232
34233
34235
34236
34239
34247
34251
34252
34256
34257
34259
34260
34266
34271
34272
34273
34275
34279
34280
34283
34286
34289
34290
34294
34296
34326
34327
34332
34334
34336
34337
34354
34358
34359
34366
35441
35445
35447
35553
35602
35632
35678
35696
35712
35713
35715
35719
35730
35734
35757
35860
35862
35870
35875
35881
35893
35895
35897
35898
35900
35901
35913
35926
35963
35967
35969
35972
35977
35978
35981
35987
35990
35994
35998
35999
36000
36001
36002
36003
36004
36010
36014
36016
36017
36019
36032
36034
36038
36042
36044
36047
36051
36060
36062
36063
36076
36081
36092
36093
36095
36101
36107
36111
36113
36114
36116
36117
36118
36119
36127
36129
36132
36136
36138
36160
36167
36187
36191
36192
36193
36222
36238
36247
36250
36251
36253
36256
36258
36259
36265
36272
36282
36301
36318
36319
36323
36341
36355
36364
36371
36375
36385
36407
36408
36425
36431
36457
36464
36474
36492
36495
36496
36524
36538
36540
36552
36579
36601
36612
36640
36650
36654
36665
36666
36677
36679
36685
36689
36706
36709
36723
36733
36740
36743
36744
36746
36748
36751
36755
36765
36772
36774
36785
36799
36801
36806
36807
36808
36809
36811
36815
36839
36840
36850
36857
36868
36879
36880
36881
36883
36884
36886
36898
36902
36907
36919
36922
36928
36930
36942
36946
36947
36960
36961
36970
36980
36981
36985
36992
37006
37011
37014
37027
37033
37040
37048
37049
37065
37100
37101
37104
37105
37155
37159
37166
37180
37183
37187
37189
37217
37219
37223
37257
37294
37328
37329
37350
37353
37357
37382
37383
37402
37410
37415
37416
37422
37423
37424
37438
37444
37461
37476
37534
37565
37566
37595
37662
37666
37675
37714
37721
37723
37730
37734
37738
37752
37757
37761
37763
37764
37773
37776
37782
37783
37804
37806
37812
37813
37815
37816
37818
37819
37820
37822
37823
37824
37835
37845
37870
37873
37891
37894
37896
37899
37921
37928
37933
37945
37950
37953
37964
37973
37975
37977
37980
38003
38004
38040
38047
38053
38054
38062
38064
38068
38070
38193
38198
38199
38203
38209
38265
38281
38337
38351
38353
38354
38355
38362
38380
38396
38421
38422
38425
38487
38489
38501
38508
38509
38510
38511
38522
38525
38533
38572
38579
38638
38641
38674
38699
38704
38705
38743
38754
38764
38771
38773
38784
38788
38921
38922
39296
39304
39305
39338
39352
39358
39372
39374
39456
39671
39680
39831
39838
39841
39845
39850
39858
39862
39866
39869
39871
39874
40227
41234
41257
41270
41481
41616
42207
42270
42307
42416
42445
42575
42622
42631
42731
42753
42862
42879
42934
42940
42953
42955
42956
42957
42962
43000
43006
43011
43040
43052
43062
43065
43070
43074
43075
43082
43084
43094
43102
43103
43167
44123
44129
44475
44497
46264
46273
46292
46645
46648
46846
46855
46861
46862
46986
46988
46990
46999
47002
47015
47025
47029
47080
47087
47103
47143
47147
47148
47154
47160
47163
47170
47215
47222
47224
47227
47233
47267
47271
47274
47324
47336
47337
47348
47349
47350
47353
47354
47355
47366
47383
47406
47503
50333
52957
[ 390 ]
3257
3264
3275
3278
3280
3334
3354
3356
3418
3429
3430
3436
3437
3475
3478
3479
3481
3486
3488
3492
3501
3503
3504
3515
3516
3519
3520
3521
3523
3567
3572
3633
3839
3842
3846
3908
3946
3959
3964
3968
3969
3978
3979
4010
4024
4032
4044
4046
4047
4048
4104
4107
4112
4131
4136
4137
4138
4139
4140
4141
4142
4143
4145
4146
4147
4162
4163
4185
4188
4191
4199
4203
4218
4230
4242
4244
4251
4252
4253
4254
4262
4266
4267
4271
4275
4371
4427
4428
4431
4433
4436
4439
4449
4452
4453
4456
4461
4465
4470
4473
4475
4480
4483
4489
4495
4497
4500
4504
4513
4517
4522
4524
4528
4535
4539
4545
4548
4549
4565
4566
4570
4584
4588
4602
4604
4607
4614
4616
4624
4631
4646
4652
4658
4659
4664
4687
4698
4707
4718
4721
4723
4725
4726
4727
4730
4733
4735
4743
4748
4752
4758
4774
4784
4785
4789
4796
4797
4799
4805
4806
4810
4832
4833
4834
4837
4843
4847
4851
4861
4863
4864
4867
4884
4887
4888
4891
4892
4893
4903
4905
4918
4920
4921
4923
4939
4942
4953
4955
4956
4964
4966
4972
4981
4982
4985
4987
4994
5000
5001
5007
5008
5009
5015
5021
5024
5025
5026
5032
5040
5041
5044
5045
5052
5053
5056
5058
5060
5063
5066
5069
5070
5072
5073
5074
5076
5085
5088
5090
5091
5095
5099
5100
5103
5106
5116
5117
5119
5120
5122
5124
5125
5129
5130
5133
5135
5136
5137
5138
5139
5141
5142
5153
5157
5159
5167
5172
5173
5174
5177
5183
5185
5190
5192
5193
5198
5200
5203
5205
5211
5212
5213
5221
5226
5227
5228
5230
5231
5232
5233
5236
5244
5246
5251
5259
5262
5266
5270
5277
5281
5287
5288
5307
5311
5315
5320
5326
5329
5339
5340
5342
5347
5348
5355
5358
5361
5367
5369
5373
5374
5377
5378
5379
5380
5384
5385
5386
5387
5389
5390
5391
5394
5397
5398
5400
5401
5410
5412
5421
5438
5450
5495
5498
5540
5601
5603
5610
5614
5617
5618
5619
5620
5632
5697
5703
5708
5709
5711
5713
5715
5770
5787
5791
5831
5858
5883
5886
5895
5936
5938
5949
5964
5965
5968
5985
6023
6027
6028
6033
6043
6048
6050
6051
6064
6071
6077
6089
6090
6093
6101
6104
6126
6128
6129
6138
6320
6327
6328
6331
6332
6347
6348
6350
6354
6357
6372
6379
6383
6397
6402
6414
6425
6426
6436
6442
6443
6448
6449
6450
6469
6470
6472
6477
6479
6480
6489
6492
6493
6495
6497
6499
6511
6512
6513
6514
6515
6516
6518
6524
6655
6708
6739
6782
6795
6797
6807
6814
6824
6828
6830
6836
6845
6916
6970
7010
7014
7015
7023
7050
7061
7117
7124
7140
7144
7153
7157
7200
7203
7216
7249
7339
7532
7550
7561
7567
7577
7616
7642
7794
7847
7898
7899
7904
7968
7986
7990
7995
8012
8111
8124
8125
8129
8131
8152
8195
8196
8204
8229
8251
8255
8263
8267
8268
8278
8279
8281
8284
8285
8286
8287
8289
8290
8294
8295
8297
8301
8304
8311
8314
8322
8323
8325
8330
8337
8340
8348
8359
8391
8418
8421
8424
8430
8431
8432
8435
8436
8444
8447
8452
8531
8562
8642
8659
8660
8672
8678
8679
8681
8683
8684
8685
8686
8687
8694
8696
8700
8701
8702
8709
8710
8711
8724
8737
8740
8741
8742
8744
8745
8746
8749
8753
8754
8761
8767
8769
8773
8774
8776
8782
8783
8785
8790
8798
8800
8832
8833
8838
8842
8843
8845
8850
8974
8994
9013
9034
9039
9065
9107
9159
9163
9165
9166
9169
9171
9175
9176
9179
9181
9182
9183
9184
9185
9186
9187
9191
9228
9230
9235
9238
9260
9263
9264
9266
9270
9271
9275
9277
9282
9283
9293
9301
9306
9308
9309
9311
9313
9317
9320
9323
9326
9330
9331
9337
9342
9360
9362
9363
9364
9369
9372
9380
9383
9390
9392
9393
9397
9400
9406
9407
9408
9409
9410
9411
9412
9414
9416
9421
9424
9432
9434
9439
9440
9443
9448
9449
9452
9453
9460
9476
9477
9480
9482
9483
9497
9498
9528
9529
9530
9531
9557
9561
9599
9600
9602
9626
9644
9645
9648
9656
9681
9682
9684
9687
9717
9719
9728
9735
9752
9756
9757
9767
9775
9778
9779
9789
9790
9793
9795
9798
9799
9801
9802
9803
9804
9808
9843
9844
9847
9851
9852
9855
9870
9871
9887
9888
9893
9895
9898
9900
9915
9924
9931
9934
9953
9960
9965
9966
9968
9971
9976
9979
9986
9988
9989
9993
9995
9997
9998
9999
10017
10020
10021
10022
10029
10034
10035
10036
10038
10056
10058
10059
10063
10080
10152
10153
10162
10164
10169
10181
10192
10239
10258
10263
10316
10327
10328
10329
10332
10333
10334
10335
10338
10339
10343
10345
10348
10349
10351
10362
10369
10373
10444
10467
10471
10481
10501
10506
10514
10516
10517
10521
10536
10540
10543
10544
10550
10551
10552
10553
10554
10561
10562
10572
10574
10575
10587
10616
10621
10624
10625
10628
10632
10663
10666
10668
10669
10672
10673
10679
10680
10682
10683
10685
10688
10698
10707
10715
10718
10719
10722
10723
10724
10726
10728
10734
10735
10739
10741
10744
10752
10753
10754
10771
10780
10783
10785
10793
10797
10812
10839
10841
10866
10867
10869
10875
10877
10928
10967
10968
10969
10982
10983
10984
10985
10998
11003
11022
11051
11074
11076
11078
11082
11083
11087
11121
11124
11126
11138
11139
11141
11143
11146
11148
11154
11155
11159
11160
11161
11162
11163
11165
11166
11175
11177
11183
11184
11186
11196
11197
11200
11202
11208
11214
11219
11220
11223
11227
11236
11246
11247
11253
11254
11255
11256
11264
11265
11270
11276
11278
11280
11282
11286
11287
11290
11295
11297
11307
11310
11312
11314
11315
11316
11318
11326
11328
11330
11331
11335
11337
11338
11344
11346
11349
11365
11366
11367
11373
11376
11379
11384
11385
11392
11393
11396
11397
11400
11402
11475
11476
11482
11484
11491
11492
11493
11496
11516
11547
11741
11742
11866
11872
11873
11885
11903
11921
12052
12068
12069
12070
12073
12075
12080
12091
12126
12134
12139
12142
12189
12219
12227
12229
12230
12274
12379
12512
12514
12533
12543
12569
12611
12623
12624
12638
12640
12641
12642
12667
12668
12670
12683
12688
12696
12699
12714
12717
12720
12721
12732
12766
12767
12775
12779
12780
12788
12811
12818
12819
12828
12831
12844
12851
12852
12855
12858
12859
12866
12872
12877
12901
12907
12908
12909
12910
12913
12916
12917
12919
12924
12932
12938
12947
12954
12956
12957
12960
12964
12986
12987
13000
13009
13012
13013
13019
13026
13029
13031
13038
13058
13062
13092
13093
13094
13095
13096
13103
13108
13109
13113
13160
13172
13183
13184
13187
13188
13198
13200
13201
13207
13209
13210
13211
13215
13228
13234
13244
13249
13256
13257
13275
13288
13341
13347
13358
13362
13367
13370
13373
13375
13377
13379
13383
13387
13388
13397
13426
13427
13430
13439
13441
13442
13446
13453
13454
13455
13456
13457
13461
13465
13466
13467
13471
13526
13573
13581
13682
13683
13734
13739
13743
13753
13755
13757
13765
13769
13773
13775
13779
13781
13785
13789
13790
13791
13793
13796
13812
13822
13848
13851
13860
13861
13863
13864
13866
13869
13870
13877
13879
13881
13883
13888
13889
13894
13895
13896
13898
13901
13902
13903
13907
13908
13910
13912
13919
13920
13921
13922
13927
13928
13944
13958
13959
13970
13976
13990
13992
14012
14017
14033
14042
14044
14047
14048
14077
14078
14081
14096
14098
14101
14105
14125
14126
14128
14130
14149
14152
14153
14155
14160
14164
14171
14172
14175
14180
14198
14225
14251
14257
14258
14260
14305
14314
14319
14362
14372
14382
14385
14386
14395
14396
14405
14411
14412
14414
14415
14428
14470
14484
14495
14502
14504
14505
14514
14515
14518
14519
14523
14524
14526
14528
14530
14535
14540
14541
14542
14544
14549
14550
14551
14553
14555
14556
14570
14571
14573
14578
14585
14586
14587
14589
14595
14604
14611
14615
14620
14624
14625
14630
14632
14635
14636
14638
14640
14643
14652
14654
14661
14672
14680
14693
14694
14696
14704
14707
14708
14741
14745
14749
14756
14757
14765
14773
14806
14831
14846
14851
14859
14860
14861
14866
14869
14870
14875
14876
14877
14880
14894
14895
14900
14911
14922
14927
14985
14989
15003
15004
15007
15008
15009
15014
15016
15028
15049
15054
15142
15148
15155
15156
15157
15159
15163
15170
15174
15178
15192
15193
15194
15203
15205
15207
15208
15211
15213
15225
15227
15230
15234
15236
15237
15240
15241
15244
15248
15250
15317
15340
15350
15351
15360
15367
15369
15371
15372
15411
15413
15414
15415
15421
15423
15425
15432
15434
15435
15444
15447
15450
15453
15460
15465
15466
15469
15470
15471
15476
15478
15479
15482
15486
15488
15491
15493
15494
15499
15500
15503
15504
15505
15506
15508
15521
15524
15527
15529
15530
15533
15535
15544
15554
15559
15573
15579
15588
15617
15622
15623
15628
15643
15644
15645
15649
15651
15653
15654
15678
15690
15691
15693
15698
15703
15713
15715
15720
15728
15734
15753
15760
15763
15764
15837
15838
15839
15840
15844
15864
15869
15873
15875
15876
15877
15878
15879
15880
15882
15886
15888
15912
16081
16094
16145
16157
16158
16165
16166
16170
16175
16180
16181
16182
16190
16203
16209
16246
16247
16319
16384
16387
16391
16392
16395
16398
16416
16417
16421
16423
16427
16429
16430
16431
16443
16444
16445
16446
16448
16450
16451
16452
16458
16460
16461
16464
16466
16467
16470
16475
16487
16488
16491
16495
16496
16497
16500
16502
16503
16508
16509
16510
16514
16517
16523
16529
16539
16550
16553
16564
16570
16574
16585
16587
16588
16589
16590
16591
16594
16595
16597
16598
16599
16606
16609
16610
16623
16662
16669
16696
16698
16702
16704
16707
16714
16721
16724
16731
16734
16739
16740
16741
16742
16744
16745
16749
16755
16758
16764
16767
16774
16782
16802
16806
16807
16815
16817
16818
16821
16824
16825
16827
16828
16832
16838
16855
16863
16865
16867
16869
16870
16871
16873
16876
16881
16883
16886
16887
16888
16890
16891
16894
16896
16897
16952
16953
16960
16964
16965
17034
17041
17042
17050
17055
17072
17076
17100
17101
17110
17113
17114
17119
17122
17124
17129
17134
17138
17140
17172
17187
17188
17190
17194
17197
17198
17206
17215
17225
17238
17251
17252
17255
17258
17276
17279
17326
17414
17419
17451
17454
17456
17462
17468
17469
17470
17480
17481
17486
17487
17489
17490
17525
17540
17542
17546
17547
17548
17557
17558
17561
17566
17590
17609
17616
17617
17621
17622
17634
17635
17644
17647
17665
17667
17668
17669
17670
17671
17672
17675
17680
17681
17684
17689
17692
17697
17703
17704
17705
17707
17709
17723
17734
17735
17736
17738
17744
17746
17756
17759
17767
17775
17818
17831
17834
17835
17860
17883
17901
17910
17912
17921
17922
17937
17939
17940
17944
17947
17953
17969
17971
17973
17975
17985
17987
17988
17996
18027
18043
18047
18051
18052
18055
18057
18068
18077
18114
18117
18127
18131
18134
18135
18145
18152
18155
18159
18162
18163
18174
18195
18241
18249
18258
18259
18272
18313
18314
18345
18361
18380
18398
18416
18425
18436
18438
18439
18440
18441
18447
18448
18453
18466
18469
18471
18476
18482
18491
18495
18498
18500
18504
18506
18508
18509
18527
18528
18530
18536
18548
18562
18585
18598
18625
18626
18630
18638
18642
18643
18725
18732
18754
18759
18760
18762
18763
18767
18788
18798
18799
18801
18803
18817
18835
18836
18839
18845
18849
18853
18854
18859
18863
18864
18870
18873
18874
18884
18912
18913
18916
18932
18937
18942
18948
18955
18962
18986
18992
19000
19018
19031
19035
19037
19045
19059
19066
19068
19069
19084
19089
19098
19100
19106
19115
19119
19154
19169
19170
19177
19182
19192
19193
19196
19215
19217
19218
19222
19223
19299
19312
19321
19332
19334
19336
19337
19338
19343
19348
19351
19352
19355
19356
19375
19388
19391
19396
19400
19401
19409
19410
19414
19420
19423
19427
19428
19430
19432
19437
19453
19454
19492
19493
19494
19499
19508
19530
19543
19547
19554
19555
19557
19560
19576
19579
19581
19589
19597
19601
19612
19614
19626
19629
19630
19631
19632
19641
19648
19650
19669
19671
19672
19673
19693
19697
19700
19702
19704
19707
19710
19714
19717
19726
19728
19729
19730
19731
19734
19779
19780
19845
19848
19850
19853
19861
19865
19876
19878
19886
19887
19899
19900
19903
19904
19910
19916
19917
19918
19920
19927
19930
19931
19934
19950
20002
20006
20008
20023
20024
20032
20035
20045
20050
20051
20069
20072
20073
20077
20080
20083
20100
20106
20114
20127
20133
20134
20177
20178
20185
20187
20190
20198
20203
20206
20218
20228
20232
20236
20245
20252
20255
20309
20311
20312
20313
20326
20366
20369
20372
20374
20387
20421
20450
20470
20503
20509
20515
20520
20521
20578
20587
20609
20612
20645
20646
20648
20649
20652
20653
20671
20685
20701
20721
20726
20727
20728
20734
20735
20737
20738
20739
20743
20744
20746
20747
20750
20769
20771
20772
20777
20780
20798
20802
20803
20805
20809
20810
20816
20821
20830
20839
20842
20848
20852
20855
20859
20862
20864
20897
20900
20901
20905
20912
20921
20933
20957
20960
20965
20967
20989
21001
21003
21005
21030
21033
21036
21039
21043
21047
21077
21086
21097
21121
21123
21173
21181
21214
21216
21220
21222
21235
21236
21238
21239
21240
21246
21269
21277
21288
21294
21300
21314
21323
21325
21398
21410
21432
21437
21447
21459
21460
21508
21551
21561
21608
21615
21620
21626
21630
21638
21675
21682
21695
21751
21752
21754
21755
21757
21779
21786
21795
21802
21823
21824
21827
21836
21841
21842
21844
21863
21876
21877
21878
21890
21918
21919
21920
21921
21922
21930
21935
21936
21944
21946
21956
21957
21962
21980
21986
21994
22005
22014
22016
22023
22024
22031
22034
22037
22041
22053
22070
22073
22079
22094
22112
22114
22115
22126
22150
22151
22152
22154
22157
22158
22162
22165
22167
22170
22171
22173
22174
22176
22178
22179
22180
22181
22185
22186
22202
22207
22215
22218
22223
22226
22232
22243
22247
22249
22253
22257
22261
22264
22265
22266
22267
22270
22271
22272
22274
22278
22280
22281
22282
22284
22288
22289
22290
22294
22299
22304
22328
22341
22353
22359
22360
22362
22363
22380
22381
22383
22384
22385
22401
22403
22406
22409
22410
22411
22413
22417
22421
22442
22456
22459
22477
22487
22506
22603
22605
22609
22614
22615
22621
22624
22627
22628
22630
22635
22636
22637
22639
22647
22649
22665
22668
22705
22706
22707
22713
22717
22718
22719
22720
22726
22729
22735
22755
22774
22775
22781
22796
22799
22803
22807
22810
22816
22818
22823
22834
22847
22848
22849
22851
22862
22863
22865
22875
22877
22879
22881
22882
22887
22889
22890
22892
22894
22895
22898
22899
22900
22901
22903
22908
22909
22915
22946
22949
22954
22955
22957
22964
22968
22992
22996
22998
22999
23000
23002
23011
23014
23021
23032
23034
23051
23054
23072
23074
23079
23082
23126
23153
23188
23192
23209
23244
23251
23252
23254
23256
23266
23274
23286
23287
23320
23332
23334
23336
23347
23371
23387
23406
23408
23410
23420
23433
23439
23442
23446
23447
23452
23458
23461
23462
23464
23466
23467
23475
23476
23478
23483
23491
23499
23503
23505
23510
23511
23513
23515
23521
23526
23528
23529
23532
23537
23542
23543
23548
23552
23553
23554
23572
23576
23581
23582
23584
23586
23589
23590
23591
23593
23597
23599
23601
23608
23610
23611
23616
23617
23619
23622
23624
23626
23629
23630
23634
23638
23640
23641
23642
23644
23645
23647
23650
23651
23653
23655
23658
23660
23662
23668
23679
23680
23683
23684
23688
23689
23692
23694
23695
23700
23711
23712
23713
23716
23718
23723
23725
23726
23735
23737
23738
23739
23741
23743
23745
23748
23752
23756
23788
23792
23793
23795
23798
23801
23802
23811
23815
23817
23818
23819
23820
23821
23823
23827
23828
23832
23841
23843
23844
23848
23851
23852
23855
23856
23863
23866
23867
23868
23869
23871
23873
23875
23876
23877
23879
23880
23881
23883
23884
23886
23889
23903
23908
23910
23911
23913
23915
23916
23917
23918
23919
23922
23924
23925
23930
23932
23935
23936
23942
23953
23958
23971
23999
24000
24010
24018
24020
24029
24033
24035
24047
24048
24049
24052
24053
24056
24064
24068
24069
24071
24073
24077
24078
24081
24083
24085
24089
24091
24096
24101
24102
24104
24105
24109
24111
24112
24113
24114
24116
24117
24119
24122
24123
24128
24131
24132
24134
24135
24136
24139
24145
24150
24151
24152
24153
24157
24159
24160
24161
24163
24164
24168
24169
24170
24172
24173
24174
24175
24182
24190
24191
24193
24203
24216
24220
24226
24229
24261
24265
24284
24301
24350
24397
24493
24510
24519
24525
24526
24527
24528
24534
24539
24543
24551
24552
24567
24759
24817
24897
24901
25262
25265
25290
25293
25318
25320
25324
25325
25334
25337
25339
25346
25358
25360
25362
25363
25364
25368
25386
25392
25404
25405
25407
25422
25423
25427
25428
25440
25449
25450
25456
25461
25465
25471
25473
25520
25521
25537
25546
25547
25608
25681
25687
25703
25706
25708
25712
25722
25743
25744
25750
25753
25759
25763
25770
25789
25808
25809
25863
25892
25898
25899
25949
25950
25985
25986
26026
26029
26030
26115
26157
26162
26175
26191
26207
26210
26224
26225
26227
26228
26229
26234
26248
26306
26320
26323
26326
26327
26336
26364
26365
26370
26378
26383
26385
26387
26388
26390
26392
26396
26406
26407
26408
26409
26451
26453
26492
26494
26497
26501
26503
26505
26511
26530
26531
26534
26536
26542
26551
26553
26561
26562
26566
26567
26576
26583
26584
26586
26588
26593
26605
26623
26625
26627
26642
26652
26675
26679
26681
26684
26698
26718
26723
26727
26737
26739
26740
26744
26747
26748
26751
26758
26888
26890
26894
26902
26912
26927
26940
26949
26952
26953
26964
26968
27039
27052
27060
27067
27093
27130
27135
27152
27154
27156
27163
27174
27197
27202
27245
27321
27322
27469
27557
27575
27587
27596
27612
27624
27629
27641
27676
27687
27695
27699
27701
27702
27710
27711
27712
27714
27717
27737
27748
27753
27769
27786
27789
27794
27795
27800
27803
27808
27809
27811
27812
27814
27816
27817
27818
27819
27820
27821
27825
27828
27832
27836
27853
27868
27877
27878
27882
27883
27886
27894
27895
27914
27924
27930
27931
27934
27935
27937
27938
27939
27941
27990
28024
28039
28042
28054
28055
28064
28067
28071
28074
28076
28079
28085
28118
28162
28168
28180
28186
28198
28200
28201
28207
28212
28218
28227
28228
28231
28236
28245
28246
28248
28250
28251
28320
28333
28341
28356
28357
28363
28368
28382
28385
28405
28424
28425
28427
28443
28444
28445
28449
28450
28459
28460
28467
28469
28474
28482
28483
28513
28516
28517
28518
28519
28520
28521
28522
28528
28546
28556
28558
28561
28562
28564
28566
28567
28568
28569
28570
28573
28578
28583
28584
28603
28611
28613
28617
28619
28621
28622
28623
28630
28632
28645
28650
28654
28662
28664
28665
28674
28676
28677
28678
28689
28692
28693
28696
28702
28706
28709
28710
28724
28726
28727
28728
28729
28743
28785
28795
28801
28802
28803
28805
28807
28809
28810
28811
28816
28817
28819
28823
28832
28850
28851
28855
28870
28873
28874
28875
28898
28906
28981
29008
29023
29030
29032
29035
29051
29052
29053
29054
29055
29068
29073
29076
29077
29078
29092
29093
29094
29095
29102
29104
29107
29114
29116
29120
29121
29129
29132
29134
29135
29141
29144
29146
29158
29162
29163
29164
29180
29190
29201
29202
29205
29206
29211
29213
29230
29231
29234
29240
29244
29245
29249
29253
29255
29257
29260
29262
29267
29268
29270
29272
29275
29279
29280
29283
29286
29287
29289
29290
29291
29292
29301
29307
29312
29313
29315
29317
29318
29338
29344
29348
29352
29361
29373
29375
29378
29380
29384
29389
29390
29395
29401
29402
29405
29406
29412
29419
29420
29421
29422
29432
29434
29436
29438
29440
29444
29446
29447
29450
29485
29488
29496
29497
29498
29500
29503
29507
29508
29510
29511
29512
29517
29518
29536
29537
29544
29547
29549
29551
29561
29571
29578
29586
29587
29590
29595
29596
29597
29599
29604
29605
29608
29609
29610
29615
29620
29624
29625
29626
29629
29634
29635
29636
29637
29642
29643
29645
29646
29647
29648
29650
29654
29655
29664
29665
29668
29670
29676
29684
29688
29689
29690
29694
29695
29698
29710
29712
29716
29717
29721
29733
29735
29736
29737
29739
29741
29749
29750
29751
29752
29755
29756
29758
29766
29769
29770
29771
29772
29773
29774
29781
29789
29790
29794
29799
29800
29806
29813
29814
29816
29818
29819
29822
29823
29824
29831
29833
29835
29837
29840
29844
29855
29858
29860
29861
29862
29871
29872
29884
29885
29890
29891
29893
29894
29895
29897
29900
29902
29908
29914
29917
29918
29941
29942
29944
29951
29957
29958
29967
29968
29972
29975
29976
29977
29982
29989
29990
29994
29995
29999
30001
30009
30010
30019
30025
30026
30030
30031
30038
30040
30059
30065
30067
30073
30076
30079
30082
30083
30084
30085
30086
30088
30089
30091
30100
30105
30128
30134
30135
30137
30138
30139
30141
30142
30148
30149
30152
30154
30158
30160
30162
30166
30169
30171
30176
30178
30179
30181
30183
30184
30185
30189
30192
30194
30196
30197
30200
30201
30206
30210
30234
30235
30236
30239
30243
30258
30260
30261
30266
30267
30269
30273
30282
30289
30294
30297
30300
30305
30310
30312
30315
30321
30326
30328
30333
30337
30338
30339
30341
30345
30350
30354
30360
30365
30366
30369
30375
30387
30391
30399
30403
30404
30405
30410
30426
30427
30428
30437
30441
30442
30453
30454
30455
30456
30457
30458
30459
30468
30478
30483
30484
30485
30486
30491
30498
30515
30517
30518
30521
30525
30527
30529
30530
30533
30534
30535
30540
30545
30549
30550
30554
30565
30566
30567
30568
30570
30571
30572
30574
30579
30584
30591
30593
30594
30602
30607
30621
30623
30628
30629
30633
30634
30635
30636
30637
30640
30642
30647
30651
30653
30654
30656
30657
30659
30666
30677
30690
30711
30751
30833
30842
30845
30849
30871
30872
30880
30905
30908
30915
30921
30922
30942
30950
30951
30992
30996
31017
31028
31030
31042
31044
31046
31056
31057
31060
31062
31067
31074
31081
31083
31085
31087
31088
31089
31090
31096
31101
31104
31107
31109
31110
31113
31114
31119
31120
31128
31129
31134
31136
31142
31143
31144
31147
31152
31153
31158
31167
31168
31171
31174
31177
31179
31203
31229
31230
31255
31257
31276
31280
31282
31283
31287
31288
31294
31304
31308
31309
31310
31311
31312
31314
31321
31329
31333
31334
31336
31338
31343
31348
31351
31354
31355
31358
31360
31368
31370
31374
31389
31394
31414
31420
31426
31436
31456
31473
31474
31477
31499
31502
31514
31527
31532
31538
31543
31546
31549
31553
31554
31555
31566
31567
31568
31576
31578
31583
31585
31586
31596
31597
31598
31605
31609
31615
31626
31645
31686
31691
31693
31699
31703
31705
31706
31724
31725
31736
31737
31738
31739
31743
31748
31753
31754
31757
31760
31761
31764
31768
31769
31771
31784
31786
31787
31788
31819
31821
31822
31834
31835
31842
31845
31865
31873
31925
31931
31940
31954
31988
31989
32001
32035
32037
32253
32564
32576
32578
32583
32594
32746
32873
33062
33153
33170
33174
33206
33208
33209
33235
33306
33312
33315
33319
33360
33698
33700
33704
33714
33715
33747
33809
33866
33869
33870
33871
33950
34027
34035
34040
34060
34124
34163
34164
34211
34212
34221
34225
34228
34240
34284
34287
34311
34347
34379
34391
34396
34398
34400
34403
34412
34436
34453
34454
34482
34539
34597
34629
34675
34742
34743
35105
35156
35245
35438
35442
35525
35526
35531
35533
35534
35536
35537
35538
35543
35544
35545
35563
35572
35577
35593
35595
35597
35603
35607
35622
35623
35625
35626
35628
35631
35634
35636
35641
35642
35644
35645
35647
35648
35649
35650
35653
35661
35662
35664
35668
35671
35675
35680
35685
35686
35697
35701
35703
35704
35710
35720
35724
35725
35729
35731
35735
35736
35745
35755
35756
35762
35767
35774
35776
35778
35779
35781
35783
35788
35795
35796
35798
35802
35803
35804
35806
35821
35826
35827
35828
35835
35856
35865
35876
35921
35932
35933
35947
35949
35952
35954
35976
36040
36055
36056
36064
36121
36124
36171
36266
36376
36417
36436
36443
36446
36456
36467
36541
36582
36583
36602
36619
36621
36812
36846
36915
36944
36998
37448
37451
37455
37536
37538
37544
37545
37572
37577
37596
37598
37610
37658
37669
37716
37727
37728
37736
37737
37746
37754
37758
37760
37762
37769
37774
37781
37784
37786
37791
37798
37801
37805
37809
37811
37828
37829
37869
37909
37993
38025
38029
38052
38060
38192
38194
38195
38205
38207
38210
38218
38255
38260
38436
38437
38439
38453
38474
38481
38484
38485
38486
38488
38492
38497
38500
38504
38505
38512
38513
38515
38516
38517
38518
38520
38526
38530
38545
38555
38567
38569
38570
38573
38578
38581
38582
38587
38589
38597
38604
38606
38609
38617
38618
38621
38623
38626
38639
38642
38645
38647
38679
38680
38683
38689
38690
38692
38718
38729
38731
38740
38741
38744
38746
38747
38758
38765
38774
38780
38786
38789
38790
38791
38795
38820
38865
38872
38913
38914
38927
38936
38937
38938
38944
38948
39002
39010
39013
39017
39058
39070
39301
39302
39356
39454
39670
39674
39679
39734
39778
39798
39799
39800
39802
39805
39822
39829
39834
39907
39909
40021
40025
40035
40036
40041
40065
40083
40088
40099
40107
40115
40213
42023
42335
42359
42718
43043
43059
43080
43123
43226
43382
44122
44127
44128
44210
44324
44459
44466
44480
44509
44517
45114
46257
46361
46515
46589
46592
46633
46634
46647
46657
46660
46692
46695
46709
46777
46852
46913
46954
46966
46993
46997
47079
47081
47082
47104
47218
47230
47518
47965
48998
49896
[ 391 ]
3150
3208
3216
3218
3219
3220
3221
3225
3226
3227
3228
3232
3235
3236
3238
3239
3240
3242
3249
3250
3258
3262
3265
3266
3267
3270
3272
3273
3274
3281
3283
3285
3292
3295
3301
3307
3308
3310
3319
3324
3326
3327
3329
3331
3333
3336
3340
3352
3355
3357
3364
3365
3377
3381
3384
3386
3392
3396
3397
3401
3403
3407
3413
3414
3423
3426
3428
3435
3438
3439
3441
3449
3460
3489
3490
3498
3505
3511
3514
3530
3535
3538
3544
3553
3566
3569
3581
3584
3591
3599
3603
3604
3607
3608
3617
3620
3631
3635
3636
3637
3641
3646
3647
3655
3664
3665
3670
3683
3687
3692
3694
3707
3709
3717
3720
3727
3730
3749
3753
3755
3803
3821
3823
3831
3847
3850
3851
3871
3875
3879
3880
3885
3889
3892
3896
3905
3907
3912
3919
3922
3925
3931
3932
3934
3948
3950
3952
3953
3954
3955
3956
3963
3967
3970
4005
4008
4012
4013
4015
4020
4194
4196
4201
4228
4229
4238
4240
4479
4496
4529
4533
4536
4537
4538
4543
4544
4547
4574
4577
4580
4581
4582
4586
4591
4594
4597
4600
4601
4644
4657
4666
4678
4705
4715
4716
4719
4724
4853
4885
4898
4922
4928
4931
4933
4943
4957
5047
5049
5059
5065
5068
5081
5084
5086
5087
5089
5094
5101
5104
5109
5114
5115
5140
5145
5148
5156
5160
5162
5164
5169
5170
5171
5181
5182
5187
5188
5214
5215
5223
5225
5239
5241
5242
5254
5264
5276
5278
5301
5335
5969
5972
5973
5978
5986
5987
5989
5991
5993
5995
5996
5997
5998
6004
6005
6008
6009
6018
6019
6020
6021
6029
6031
6321
6340
6344
6345
6351
6422
6522
6530
6537
6538
6540
6541
6543
6546
6554
6555
6559
6560
6584
6585
6600
6603
6614
6616
6617
6618
6620
6624
6625
6626
6629
6633
6639
6643
6645
6646
6648
6651
6652
6653
6654
6656
6657
6658
6660
6664
6667
6668
6669
6673
6676
6677
6679
6680
6682
6683
6685
6686
6689
6690
6693
6695
6696
6698
6704
6707
6709
6710
6711
6715
6719
6720
6721
6726
6733
6736
6738
6744
6745
6746
6748
6752
6759
6772
6776
6785
6786
6789
6792
6793
6798
6800
6801
6802
6805
6806
6808
6811
6812
6813
6816
6826
6827
6831
6833
6835
6837
6843
6844
6851
6852
6855
6856
6860
6862
6864
6872
6889
6895
6896
6898
6900
6902
6910
6913
6917
6918
6925
6926
6929
6934
6935
6938
6940
6941
6942
6943
6947
6948
6950
6955
6958
6972
6975
6976
6987
6989
6991
6992
6993
6998
6999
7000
7004
7006
7009
7013
7019
7024
7025
7027
7028
7035
7037
7038
7039
7040
7046
7049
7051
7053
7055
7056
7057
7058
7060
7063
7064
7065
7066
7071
7072
7075
7076
7077
7078
7079
7080
7081
7083
7084
7087
7088
7089
7091
7092
7093
7096
7097
7098
7099
7103
7104
7105
7106
7109
7111
7113
7116
7118
7119
7123
7126
7128
7129
7131
7133
7135
7136
7137
7138
7139
7141
7143
7146
7147
7148
7154
7155
7156
7158
7159
7160
7161
7165
7168
7171
7174
7175
7177
7179
7185
7191
7193
7196
7197
7199
7201
7202
7204
7208
7209
7212
7215
7217
7219
7222
7224
7239
7243
7245
7248
7253
7258
7259
7261
7262
7264
7267
7272
7274
7275
7280
7281
7283
7285
7287
7289
7290
7291
7292
7294
7296
7297
7298
7299
7300
7301
7303
7309
7310
7311
7312
7313
7314
7318
7319
7322
7323
7324
7325
7330
7333
7334
7337
7338
7341
7342
7343
7344
7346
7350
7352
7353
7356
7358
7363
7364
7366
7369
7371
7375
7376
7380
7384
7386
7388
7389
7390
7393
7395
7398
7400
7401
7405
7406
7410
7412
7415
7417
7418
7422
7429
7430
7431
7432
7434
7436
7438
7441
7443
7447
7452
7453
7460
7463
7466
7469
7482
7485
7486
7487
7488
7490
7492
7494
7495
7498
7501
7503
7504
7505
7506
7507
7513
7516
7518
7519
7520
7521
7522
7529
7531
7533
7534
7536
7540
7546
7547
7553
7559
7560
7562
7568
7569
7570
7572
7578
7580
7581
7582
7585
7586
7588
7590
7591
7594
7597
7599
7600
7602
7603
7608
7610
7611
7612
7617
7621
7622
7623
7624
7626
7628
7629
7630
7632
7633
7634
7636
7637
7638
7640
7641
7643
7644
7646
7647
7648
7650
7658
7660
7661
7662
7663
7666
7668
7675
7676
7677
7678
7679
7683
7684
7689
7697
7698
7701
7702
7703
7706
7707
7710
7712
7713
7715
7716
7719
7730
7732
7736
7737
7739
7740
7742
7745
7753
7767
7768
7770
7772
7777
7778
7780
7783
7785
7788
7789
7790
7796
7797
7801
7802
7804
7806
7808
7810
7815
7822
7823
7824
7830
7838
7843
7846
7848
7849
7850
7857
7868
7873
7879
7881
7886
7887
7892
7894
7896
7897
7900
7902
7903
7907
7910
7911
7913
7922
7933
7950
7953
7959
7967
7969
7971
7972
7975
7977
7981
7982
7984
7985
7991
7997
7999
8003
8004
8006
8007
8011
8022
8023
8024
8026
8033
8035
8047
8051
8056
8057
8058
8059
8060
8063
8064
8066
8067
8071
8083
8088
8089
8090
8091
8092
8094
8097
8098
8099
8100
8105
8106
8107
8108
8110
8114
8115
8116
8117
8118
8119
8121
8122
8123
8128
8133
8134
8135
8137
8141
8142
8143
8144
8146
8147
8148
8149
8155
8156
8157
8159
8160
8169
8171
8173
8174
8175
8176
8178
8182
8183
8185
8188
8191
8193
8194
8197
8201
8206
8207
8209
8210
8211
8212
8215
8225
8226
8228
8230
8233
8234
8235
8238
8241
8248
8249
8252
8254
8256
8257
8258
8264
8265
8270
8271
8272
8275
8300
8319
8320
8324
8327
8341
8342
8343
8344
8346
8347
8349
8358
8382
8385
8386
8387
8388
8389
8390
8428
8429
8443
8453
8455
8456
8457
8465
8466
8475
8476
8477
8479
8480
8483
8484
8485
8488
8490
8491
8492
8493
8498
8499
8503
8508
8509
8510
8515
8516
8518
8529
8533
8538
8539
8540
8542
8547
8549
8550
8555
8572
8579
8581
8584
8601
8606
8614
8615
8618
8620
8626
8627
8628
8630
8631
8634
8635
8636
8637
8639
8640
8641
8647
8649
8656
8657
8661
8662
8703
8834
8836
8839
8840
8841
8985
8997
9014
9015
9016
9017
9018
9021
9022
9032
9033
9036
9040
9041
9048
9049
9050
9053
9054
9056
9064
9066
9070
9071
9081
9087
9091
9094
9099
9101
9114
9117
9121
9122
9126
9131
9134
9140
9148
9150
9151
9152
9153
9160
9162
9168
9173
9174
9222
9233
9237
9239
9240
9245
9246
9250
9267
9280
9284
9286
9288
9290
9292
9294
9295
9296
9297
9298
9307
9347
9353
9355
9366
9374
9375
9382
9384
9385
9389
9401
9405
9422
9428
9442
9451
9458
9481
9484
9526
9527
9532
9535
9538
9539
9541
9542
9543
9546
9547
9548
9549
9550
9551
9552
9556
9560
9562
9570
9571
9572
9578
9580
9590
9593
9597
9601
9604
9606
9608
9609
9610
9612
9613
9629
9630
9631
9633
9639
9642
9643
9646
9649
9650
9651
9653
9654
9660
9666
9668
9672
9673
9674
9675
9677
9678
9679
9680
9683
9685
9690
9693
9698
9700
9701
9702
9703
9707
9714
9715
9716
9721
9723
9724
9725
9726
9730
9731
9733
9734
9737
9738
9742
9743
9749
9750
9751
9759
9763
9764
9769
9770
9771
9773
9776
9777
9780
9783
9788
9792
9796
9805
9806
9809
9817
9831
9835
9836
9838
9840
9850
9858
9860
9862
9863
9869
9872
9874
9880
9881
9883
9884
9890
9891
9901
9922
9926
9930
9940
9941
9944
9949
9955
9957
9958
9959
9963
9967
9969
9970
9972
9973
9974
9980
9982
9991
9996
10025
10026
10031
10032
10037
10039
10041
10044
10046
10047
10048
10264
10330
10344
10347
10350
10353
10355
10358
10363
10366
10367
10370
10371
10375
10378
10379
10385
10386
10389
10391
10392
10393
10398
10404
10406
10425
10442
10443
10450
10454
10457
10459
10462
10463
10465
10466
10469
10470
10472
10473
10475
10476
10478
10480
10497
10503
10507
10509
10515
10523
10524
10526
10527
10529
10530
10546
10547
10548
10560
10564
10565
10566
10568
10570
10571
10576
10577
10580
10584
10591
10597
10600
10603
10604
10614
10618
10619
10620
10664
10681
10684
10713
10714
10727
10729
10730
10733
10736
10737
10740
10743
10751
10863
10865
10868
11017
11020
11116
11123
11152
11156
11169
11194
11195
11213
11217
11222
11226
11228
11231
11281
11284
11293
11300
11350
11352
11353
11355
11357
11358
11360
11370
11380
11386
11477
11479
11480
11502
12062
12064
12612
12615
12625
12629
12631
12636
12637
12654
12716
12722
12751
12771
12777
12813
12817
12825
12830
12832
12837
12838
12841
12843
12863
12871
12931
12934
13024
13027
13033
13037
13039
13049
13076
13079
13085
13087
13090
13123
13124
13142
13145
13150
13155
13156
13163
13169
13175
13177
13178
13180
13182
13185
13189
13190
13194
13197
13202
13204
13214
13216
13218
13222
13224
13226
13231
13235
13242
13245
13247
13248
13254
13258
13260
13263
13269
13270
13271
13274
13277
13282
13283
13285
13286
13303
13305
13308
13309
13310
13311
13313
13316
13317
13319
13321
13323
13324
13325
13328
13329
13339
13344
13346
13361
13365
13368
13372
13385
13386
13392
13394
13398
13399
13400
13414
13416
13417
13418
13420
13422
13425
13428
13429
13434
13448
13451
13458
13462
13464
13492
13506
13508
13510
13511
13514
13515
13516
13517
13521
13546
13549
13551
13555
13556
13558
13560
13564
13569
13575
13576
13577
13579
13583
13584
13585
13596
13616
13628
13629
13631
13635
13638
13640
13648
13658
13662
13668
13671
13672
13681
13686
13687
13693
13694
13697
13702
13704
13705
13714
13716
13718
13719
13720
13722
13725
13726
13727
13728
13729
13733
13740
13744
13746
13749
13783
13786
13787
13792
13797
13799
13823
13840
13846
13900
13905
13911
13915
13923
13931
13932
13933
13942
13943
13946
13951
13953
13954
13957
13964
13965
13968
13969
13973
13974
13977
13983
13984
13988
13989
13991
13994
13998
13999
14000
14007
14008
14010
14011
14014
14027
14028
14049
14050
14051
14052
14059
14064
14065
14069
14074
14076
14080
14094
14095
14127
14131
14136
14137
14138
14139
14140
14141
14143
14145
14151
14158
14159
14161
14162
14163
14166
14167
14168
14170
14173
14300
14364
14365
14366
14367
14369
14371
14373
14374
14375
14378
14379
14384
14387
14388
14391
14394
14413
14417
14419
14420
14421
14423
14426
14427
14429
14430
14431
14433
14434
14436
14449
14450
14452
14453
14454
14457
14462
14467
14468
14469
14473
14474
14481
14488
14489
14491
14493
14494
14500
14506
14513
14516
14525
14534
14566
14568
14569
14572
14577
14579
14580
14584
14588
14602
14603
14605
14610
14612
14616
14617
14618
14619
14621
14629
14634
14642
14656
14675
14677
14683
14686
14687
14692
14697
14699
14702
14706
14715
14716
14722
14725
14726
14729
14731
14742
14743
14744
14746
14751
14754
14755
14764
14768
14856
14862
14863
14865
14868
14873
14987
15010
15017
15027
15036
15042
15044
15045
15053
15055
15057
15059
15143
15149
15154
15158
15160
15171
15180
15181
15188
15191
15195
15196
15197
15199
15201
15202
15204
15206
15210
15212
15214
15216
15218
15223
15224
15231
15232
15352
15353
15356
15357
15359
15362
15365
15368
15375
15409
15416
15441
15467
15484
15496
15501
15502
15507
15512
15515
15517
15518
15520
15522
15525
15526
15528
15532
15536
15537
15538
15539
15540
15541
15545
15546
15547
15551
15552
15553
15555
15556
15557
15558
15560
15563
15564
15565
15568
15574
15575
15582
15584
15585
15586
15626
15630
15637
15638
15639
15640
15641
15642
15646
15647
15648
15650
15652
15662
15667
15668
15680
15681
15684
15687
15722
15727
15732
15735
15736
15738
15741
15743
15745
15746
15747
15748
15749
15752
15754
15755
15756
15757
15758
15768
15771
15772
15774
15775
15777
15783
15784
15787
15791
15793
15794
15795
15800
15802
15803
15807
15808
15809
15811
15816
15833
15835
15836
15841
15870
15872
15881
15883
15884
15885
15887
15893
15896
15903
15904
15906
16146
16149
16150
16153
16154
16155
16156
16160
16161
16163
16189
16196
16204
16205
16212
16215
16217
16221
16227
16231
16241
16244
16245
16248
16249
16253
16255
16256
16264
16267
16268
16278
16280
16281
16283
16284
16321
16326
16332
16362
16373
16376
16379
16382
16386
16413
16414
16419
16422
16432
16435
16437
16441
16442
16457
16463
16498
16505
16507
16511
16516
16521
16549
16554
16557
16558
16562
16572
16577
16578
16580
16581
16582
16583
16584
16586
16607
16670
16672
16675
16676
16678
16682
16688
16691
16692
16700
16701
16703
16709
16710
16712
16713
16715
16718
16720
16727
16728
16732
16750
16766
16770
16771
16788
16789
16790
16791
16811
16812
16851
16884
16885
16954
16955
16956
16963
17047
17108
17111
17115
17117
17123
17130
17137
17139
17141
17147
17150
17151
17158
17160
17167
17169
17170
17173
17176
17178
17179
17183
17184
17185
17189
17191
17192
17193
17195
17199
17200
17204
17209
17213
17222
17223
17231
17233
17239
17242
17243
17248
17257
17260
17261
17407
17413
17421
17422
17424
17425
17427
17428
17429
17430
17433
17434
17436
17440
17443
17445
17447
17453
17457
17459
17463
17464
17465
17467
17471
17473
17474
17475
17476
17477
17478
17479
17485
17488
17492
17494
17495
17496
17497
17499
17500
17503
17504
17506
17508
17510
17511
17514
17515
17517
17518
17520
17521
17526
17527
17531
17532
17534
17535
17538
17543
17550
17553
17555
17556
17559
17563
17618
17663
17673
17698
17710
17717
17718
17721
17722
17725
17733
17737
17742
17743
17747
17748
17751
17752
17754
17757
17758
17760
17761
17763
17764
17765
17766
17770
17771
17774
17778
17779
17780
17786
17787
17788
17793
17796
17807
17808
17812
17813
17816
17824
17829
17836
17837
17838
17842
17843
17844
17845
17846
17848
17854
17856
17857
17858
17861
17866
17867
17869
17876
17914
17915
17923
17924
17926
17927
17928
17934
17935
17936
17938
17942
17943
17945
17949
17950
17954
17955
17956
17958
17961
17962
17967
17977
17978
17989
17997
18001
18003
18009
18010
18011
18012
18022
18025
18026
18028
18036
18038
18039
18040
18041
18044
18045
18046
18049
18053
18054
18063
18065
18104
18106
18107
18108
18109
18121
18123
18124
18125
18126
18129
18137
18140
18141
18142
18143
18149
18257
18273
18277
18281
18283
18287
18321
18329
18332
18337
18339
18341
18346
18350
18357
18358
18365
18366
18367
18369
18370
18376
18389
18391
18396
18399
18405
18409
18410
18415
18418
18419
18421
18423
18449
18451
18481
18493
18502
18503
18510
18544
18546
18547
18550
18554
18556
18563
18565
18568
18571
18572
18579
18582
18583
18594
18597
18601
18611
18614
18618
18623
18624
18632
18634
18636
18637
18640
18641
18645
18648
18649
18656
18657
18660
18661
18666
18669
18670
18671
18676
18677
18678
18679
18680
18682
18683
18688
18689
18690
18692
18693
18699
18702
18705
18711
18713
18715
18719
18727
18730
18731
18734
18735
18736
18738
18739
18749
18752
18800
18818
18838
18851
18867
18868
18871
18881
18935
19017
19019
19020
19022
19028
19039
19047
19060
19061
19062
19064
19070
19073
19077
19078
19080
19085
19088
19090
19094
19097
19103
19171
19173
19174
19176
19185
19186
19187
19219
19220
19221
19324
19358
19359
19368
19371
19383
19384
19386
19389
19390
19392
19405
19408
19411
19426
19438
19441
19442
19447
19448
19450
19451
19455
19458
19604
19607
19615
19619
19623
19625
19627
19633
19634
19636
19637
19639
19646
19649
19653
19655
19656
19664
19665
19668
19670
19675
19680
19685
19694
19705
19709
19724
19735
19750
19753
19760
19761
19762
19774
19775
19777
19782
19783
19791
19798
19805
19807
19827
19828
19831
19867
20026
20040
20046
20052
20054
20055
20057
20060
20063
20071
20079
20082
20085
20091
20094
20097
20098
20099
20102
20179
20181
20182
20191
20192
20194
20196
20197
20199
20202
20205
20207
20208
20211
20214
20215
20216
20217
20219
20220
20221
20226
20229
20231
20234
20235
20237
20238
20239
20240
20247
20248
20250
20253
20254
20256
20257
20259
20264
20268
20271
20275
20277
20292
20294
20296
20299
20301
20303
20306
20740
20760
20762
20766
20774
20781
20786
20789
20790
20791
20800
20804
20811
20814
20822
20824
20826
20828
20832
20833
20835
20851
20853
20854
20856
20857
20858
20860
20863
20865
20871
20872
20873
20874
20877
20878
20880
20881
20892
20894
20898
20899
20902
20904
20907
20909
20910
20911
20913
20916
20919
20920
20922
20923
20928
20929
20930
20931
20932
20941
20943
20947
20954
20955
20956
20958
20959
20961
20962
20966
20968
20973
20975
20978
20979
20985
20986
20992
20993
20998
20999
21002
21174
21490
21497
21498
21499
21504
21509
21511
21512
21581
21801
21828
21831
21846
21847
21849
21852
21853
21854
21864
21866
21869
21871
21872
21873
21874
21875
21879
21885
21889
21891
21894
21895
21898
21899
21902
21904
21906
21908
21912
21915
21938
21939
21941
21951
22064
22067
22155
22163
22164
22172
22184
22187
22201
22204
22209
22212
22221
22222
22227
22228
22229
22230
22235
22237
22238
22239
22240
22242
22251
22256
22258
22283
22343
22345
22348
22349
22350
22355
22356
22365
22366
22367
22370
22371
22377
22389
22390
22391
22393
22394
22395
22396
22397
22426
22427
22429
22602
22606
22617
22619
22622
22626
22631
22634
22644
22646
22650
22656
22657
22658
22661
22662
22663
22664
22666
22699
22700
22703
22708
22728
22733
22734
22750
22752
22758
22760
22763
22764
22767
22771
22772
22782
22783
22785
22787
22788
22792
22793
22794
22804
22806
22808
22813
22815
22821
22822
22826
22831
22832
22833
22836
22837
22839
22846
22853
22854
22857
22859
22860
22870
22871
22872
22873
22874
22876
22883
22885
22893
22902
22904
22961
22963
22967
22971
22975
22978
22979
22981
22985
22986
22987
22991
22995
23001
23007
23009
23010
23012
23013
23020
23024
23028
23033
23035
23036
23042
23044
23045
23047
23052
23053
23071
23073
23075
23081
23084
23191
23195
23253
23255
23264
23270
23272
23273
23453
23490
23565
23587
23588
23595
23596
23606
23607
23609
23633
23637
23652
23654
23657
23663
23665
23670
23671
23672
23673
23675
23682
23696
23698
23701
23709
23724
23732
23733
23740
23744
23749
23753
23760
23768
23777
23778
23785
23786
23787
23790
23794
23796
23799
23814
23842
23859
23862
23864
23899
23904
23905
23926
23943
23944
23948
23951
23959
23961
23962
23966
23969
24001
24014
24022
24024
24025
24026
24027
24028
24046
24057
24067
24080
24090
24093
24103
24106
24107
24108
24126
24143
24146
24167
24195
24197
24198
24199
24202
24206
24207
24208
24211
24223
24224
24231
24235
24238
24239
24260
24264
24268
24271
24283
24286
24294
24299
24303
24307
24310
24324
24325
24327
24333
24335
24340
24346
24348
24351
24352
24357
24362
24363
24364
24370
24373
24384
24385
24386
24387
24388
24389
24396
24407
24487
24504
24506
24507
24509
24512
24514
24515
24516
24517
24518
24542
24544
24547
24548
24560
24562
24563
24564
24569
24650
24736
24737
24740
24744
24746
24747
24749
24751
24756
24757
24760
24778
24782
24789
24796
24816
24818
25036
25261
25266
25267
25269
25276
25305
25308
25311
25313
25319
25321
25322
25323
25326
25327
25328
25329
25331
25332
25333
25335
25336
25341
25342
25347
25355
25356
25357
25359
25367
25369
25371
25374
25377
25382
25384
25390
25391
25394
25397
25399
25401
25409
25410
25411
25413
25415
25420
25421
25424
25425
25426
25429
25430
25432
25433
25435
25436
25437
25438
25439
25441
25442
25443
25446
25448
25460
25467
25469
25474
25482
25483
25498
25503
25506
25509
25522
25524
25527
25528
25529
25531
25532
25533
25535
25538
25543
25551
25555
25563
25566
25567
25568
25571
25573
25575
25577
25578
25580
25584
25590
25593
25595
25596
25597
25599
25600
25602
25603
25604
25605
25606
25607
25611
25613
25614
25615
25617
25620
25621
25623
25628
25630
25632
25636
25639
25640
25645
25649
25651
25658
25680
25683
25684
25685
25686
25689
25692
25693
25694
25695
25697
25701
25707
25709
25711
25715
25717
25724
25729
25731
25733
25735
25737
25742
25749
25752
25754
25765
25766
25768
25769
25779
25780
25783
25785
25796
25798
25799
25800
25804
25805
25806
25807
25822
25823
25824
25828
25829
25836
25838
25842
25845
25847
25852
25857
25858
25859
25866
25869
25870
25872
25874
25879
25883
25884
25885
25889
25890
25891
25933
25942
25958
25962
25963
25965
25967
25973
25977
25982
25987
25994
26001
26017
26020
26021
26023
26024
26025
26028
26055
26056
26107
26113
26128
26129
26130
26138
26141
26146
26150
26153
26158
26159
26166
26180
26182
26192
26195
26197
26201
26204
26206
26213
26214
26215
26217
26220
26242
26245
26246
26309
26322
26325
26329
26332
26334
26350
26355
26357
26360
26361
26362
26363
26366
26368
26384
26394
26399
26403
26410
26413
26414
26437
26439
26440
26445
26446
26447
26448
26449
26454
26455
26457
26458
26459
26467
26477
26481
26485
26486
26487
26490
26495
26496
26507
26513
26514
26515
26517
26518
26523
26527
26528
26548
26549
26554
26557
26563
26571
26572
26579
26580
26581
26587
26589
26591
26592
26595
26598
26599
26600
26601
26602
26604
26606
26607
26608
26614
26617
26618
26619
26621
26622
26624
26626
26638
26641
26645
26649
26650
26654
26655
26656
26661
26664
26665
26669
26682
26683
26685
26689
26691
26692
26696
26701
26703
26707
26709
26710
26711
26714
26716
26720
26722
26724
26725
26726
26728
26738
26741
26743
26746
26749
26752
26755
26756
26761
26762
26765
26766
26767
26768
26769
26770
26771
26772
26773
26774
26775
26777
26778
26780
26783
26786
26787
26788
26789
26792
26796
26801
26802
26806
26809
26810
26811
26812
26813
26817
26818
26820
26822
26826
26849
26857
26858
26859
26863
26868
26869
26880
26887
26892
26893
26900
26918
26919
26920
26921
26922
26924
26925
26926
26928
26930
26932
26939
26943
26945
26946
26947
26951
26954
26955
26956
26958
26959
26962
26963
26966
26967
26969
26970
26971
26973
26976
26977
26980
26981
26982
26984
26985
26987
26989
27001
27004
27005
27007
27009
27018
27023
27029
27038
27044
27045
27046
27048
27050
27053
27056
27057
27061
27062
27063
27064
27065
27066
27068
27069
27074
27084
27088
27097
27099
27121
27122
27127
27132
27133
27140
27141
27142
27146
27147
27149
27151
27157
27158
27160
27166
27167
27168
27169
27170
27172
27173
27176
27177
27181
27182
27183
27191
27195
27198
27201
27203
27204
27205
27206
27209
27214
27216
27222
27228
27230
27232
27233
27234
27237
27238
27240
27251
27252
27253
27257
27262
27264
27265
27266
27268
27278
27281
27282
27283
27284
27287
27296
27301
27304
27318
27323
27324
27328
27333
27337
27362
27364
27366
27369
27370
27375
27377
27379
27384
27385
27388
27401
27402
27404
27417
27423
27425
27426
27428
27429
27430
27434
27436
27437
27441
27442
27455
27462
27470
27472
27473
27478
27479
27480
27484
27487
27488
27490
27492
27494
27495
27500
27501
27510
27516
27517
27520
27535
27536
27548
27550
27551
27552
27553
27554
27555
27560
27563
27565
27566
27569
27574
27576
27577
27578
27581
27583
27584
27586
27589
27591
27592
27594
27600
27602
27603
27609
27610
27611
27613
27617
27618
27619
27625
27628
27631
27632
27633
27635
27637
27638
27639
27644
27645
27646
27647
27649
27658
27659
27661
27662
27666
27668
27669
27672
27673
27675
27678
27679
27682
27683
27686
27688
27690
27693
27703
27704
27705
27707
27708
27716
27719
27720
27723
27730
27742
27749
27750
27752
27754
27755
27759
27760
27762
27763
27764
27771
27774
27775
27779
27782
27783
27784
27787
27788
27790
27798
27801
27805
27807
27824
27838
27839
27840
27843
27845
27847
27851
27855
27856
27859
27861
27865
27869
27870
27875
27880
27881
27885
27889
27890
27893
27897
27898
27899
27900
27901
27902
27903
27904
27905
27906
27907
27909
27916
27917
27918
27919
27921
27925
27926
27942
27943
27945
27946
27947
27948
27949
27952
27954
27956
27957
27960
27962
27970
27971
27972
27973
27976
27977
27979
27980
27984
27985
27986
27988
27989
27993
27994
27995
27999
28000
28003
28004
28007
28021
28023
28026
28027
28028
28031
28037
28040
28041
28053
28056
28058
28062
28065
28068
28069
28081
28086
28090
28092
28093
28094
28095
28100
28105
28107
28113
28116
28117
28127
28147
28151
28153
28157
28158
28166
28171
28178
28188
28199
28203
28204
28206
28210
28211
28213
28221
28226
28254
28256
28263
28266
28267
28268
28276
28279
28285
28290
28291
28293
28295
28297
28304
28308
28309
28311
28313
28315
28316
28317
28324
28325
28338
28340
28345
28346
28354
28355
28359
28361
28365
28366
28369
28371
28372
28387
28389
28390
28391
28392
28397
28399
28402
28413
28414
28428
28431
28432
28433
28436
28437
28441
28448
28453
28454
28461
28470
28472
28478
28481
28487
28488
28489
28490
28493
28497
28500
28501
28508
28509
28511
28514
28527
28534
28535
28541
28545
28548
28563
28572
28576
28577
28590
28591
28631
28668
28670
28671
28672
28673
28681
28684
28685
28686
28705
28713
28715
28717
28719
28786
28821
28822
28824
28825
28828
28856
28857
28866
28869
28872
28878
28901
28902
28910
28912
28928
29033
29034
29037
29041
29042
29044
29045
29050
29080
29081
29084
29086
29088
29091
29100
29101
29103
29123
29137
29138
29140
29142
29147
29152
29153
29154
29155
29160
29167
29171
29173
29174
29175
29176
29178
29181
29187
29199
29200
29207
29210
29218
29220
29227
29228
29229
29236
29239
29243
29246
29247
29248
29252
29265
29266
29285
29288
29294
29299
29300
29320
29324
29325
29327
29328
29334
29336
29337
29339
29340
29341
29345
29347
29349
29350
29351
29353
29355
29362
29367
29368
29382
29383
29385
29386
29387
29393
29396
29404
29408
29409
29414
29415
29416
29429
29433
29437
29441
29442
29448
29451
29452
29453
29454
29456
29459
29460
29461
29462
29465
29466
29467
29469
29472
29473
29474
29478
29479
29480
29482
29487
29490
29493
29494
29495
29499
29501
29505
29515
29519
29522
29524
29525
29526
29528
29530
29532
29533
29534
29535
29539
29542
29545
29548
29550
29553
29555
29556
29564
29565
29570
29580
29582
29584
29593
29601
29612
29614
29618
29623
29627
29630
29631
29632
29651
29653
29656
29657
29659
29669
29672
29673
29674
29677
29680
29681
29682
29691
29693
29697
29700
29701
29702
29703
29708
29709
29722
29728
29731
29732
29743
29747
29753
29759
29764
29765
29768
29775
29776
29777
29778
29780
29783
29785
29793
29797
29809
29810
29817
29820
29827
29836
29838
29839
29842
29845
29850
29851
29852
29853
29857
29859
29865
29866
29869
29887
29896
29898
29899
29904
29905
29906
29907
29911
29912
29913
29915
29924
29928
29931
29934
29935
29936
29939
29940
29956
29959
29971
30011
30024
30036
30039
30043
30045
30048
30049
30050
30052
30054
30064
30075
30087
30092
30093
30094
30095
30097
30121
30133
30157
30175
30191
30193
30218
30224
30270
30272
30281
30284
30285
30292
30311
30313
30318
30319
30348
30353
30356
30357
30359
30364
30367
30368
30370
30382
30386
30388
30408
30409
30413
30414
30415
30463
30464
30467
30470
30472
30473
30474
30475
30476
30479
30480
30488
30489
30493
30494
30496
30499
30500
30506
30509
30513
30519
30520
30526
30528
30531
30536
30537
30546
30547
30548
30557
30558
30559
30562
30564
30576
30577
30582
30583
30586
30587
30588
30590
30595
30597
30598
30599
30600
30601
30604
30609
30610
30611
30615
30616
30617
30620
30624
30625
30626
30632
30641
30643
30644
30646
30652
30658
30662
30665
30667
30679
30682
30685
30686
30689
30691
30692
30693
30694
30699
30700
30701
30705
31095
31098
31116
31122
31126
31131
31132
31137
31145
31149
31150
31155
31159
31162
31172
31187
31200
31208
31258
31268
31269
31285
31286
31291
31292
31313
31315
31316
31318
31322
31325
31330
31331
31332
31335
31337
31340
31341
31345
31346
31352
31357
31359
31361
31362
31365
31367
31371
31372
31375
31376
31379
31382
31383
31395
31397
31398
31399
31402
31403
31407
31411
31413
31418
31421
31429
31430
31431
31432
31433
31435
31437
31440
31441
31442
31444
31445
31446
31448
31451
31454
31455
31457
31458
31460
31461
31462
31469
31470
31472
31478
31480
31481
31482
31483
31485
31489
31491
31493
31494
31498
31503
31504
31507
31509
31512
31513
31517
31529
31533
31534
31540
31541
31544
31551
31558
31559
31560
31561
31577
31581
31584
31589
31590
31624
31628
31633
31636
31639
31641
31660
31662
31668
31671
31677
31678
31680
31681
31685
31697
31728
31729
31749
31756
31765
31773
31774
31776
31785
31789
31790
31799
31801
31802
31806
31813
31816
31817
31818
31826
31828
31829
31830
31832
31833
31838
31843
31844
31847
31851
31852
31853
31855
31856
31866
31868
31869
31870
31871
31874
31875
31881
31882
31884
31885
31886
31891
31892
31900
31901
31908
31911
31913
31915
31916
31917
31930
31947
31948
31959
31961
31962
31965
31966
31978
31986
32102
32251
32579
32668
32761
33028
33073
33077
33095
33114
33122
33138
33141
33145
33146
33173
33207
33211
33213
33216
33221
33222
33223
33226
33243
33246
33247
33265
33266
33299
33345
33350
33358
33404
33405
33411
33415
33428
33430
33431
33444
33445
33446
33448
33453
33474
33477
33505
33508
33552
33593
33603
33605
33607
33612
33613
33616
33618
33621
33622
33623
33629
33636
33637
33639
33642
33645
33647
33658
33662
33673
33678
33690
33707
34373
34376
34381
34382
34383
34384
34387
34402
34408
34411
34413
34425
34433
34435
34441
34457
34461
34462
34463
34468
34471
34478
34480
34495
34511
34517
34520
34523
34525
34527
34534
34538
34553
34556
34559
34560
34563
34564
34565
34566
34573
34577
34580
34581
34586
34587
34589
34594
34595
34596
34599
34600
34604
34605
34606
34608
34611
34621
34628
34635
34636
34640
34641
34642
34644
34649
34650
34670
34673
34677
34678
34681
34683
34684
34692
34695
34708
34710
34713
34747
34763
34764
34765
34766
34768
34769
34770
34772
34779
34784
34785
34793
34803
34812
35135
35468
35473
35474
35478
35484
35489
35493
35494
35499
35503
35527
35530
35532
35547
35565
35567
35574
35575
35578
35579
35582
35587
35596
35598
35599
35605
35608
35609
35610
35611
35613
35614
35616
35621
35627
35630
35637
35652
35654
35656
35657
35659
35682
35687
35688
35689
35690
35693
35698
35699
35702
35711
35727
35728
35732
35740
35742
35751
35752
35753
35759
35769
35772
35773
35775
35785
35790
35793
35801
35808
35812
35814
35831
35832
35839
35840
35853
35854
35855
35866
35937
35941
35942
35943
36340
36448
36450
36558
37449
37456
37553
37560
37579
37582
37588
37589
37590
37592
37597
37619
37624
37911
37914
38023
38027
38028
38059
38061
38232
38234
38236
38237
38239
38241
38242
38244
38246
38248
38496
38539
38540
38544
38546
38547
38548
38549
38551
38553
38557
38558
38568
38586
38591
38592
38593
38594
38595
38599
38607
38610
38612
38613
38614
38615
38619
38625
38629
38631
38632
38633
38634
38636
38640
38643
38649
38653
38659
38661
38668
38672
38677
38682
38696
38717
38722
38723
38767
38768
38797
38801
38804
38807
38810
38811
38815
38817
38818
38821
38823
38825
38826
38845
38849
38852
38854
38855
38870
38871
38876
38877
38904
38906
38907
38910
38928
38929
38942
38945
38946
38952
38954
38956
38961
38968
38975
38976
38981
38982
38988
38995
39004
39007
39009
39011
39015
39016
39018
39019
39020
39022
39023
39024
39027
39028
39029
39031
39042
39043
39049
39053
39057
39059
39073
39074
39076
39078
39087
39432
39438
39441
39450
39460
39461
39462
39475
39494
39520
39523
39536
39549
39552
39557
39559
39560
39567
39569
39572
39580
39587
39629
39630
39632
39649
39655
39662
39663
39678
39706
39709
39739
39747
39758
39763
39787
39801
39804
39809
39906
39943
39946
39977
39978
39979
39985
39999
40001
40012
40031
40032
40037
40038
40039
40040
40055
40066
40067
40070
40071
40073
40074
40075
40076
40080
40085
40086
40092
40093
40096
40098
40100
40103
40105
40108
40113
40114
40118
40129
40150
40163
40200
42347
43183
43229
43233
43364
43667
43833
43917
44051
44089
44095
44102
44110
44112
44113
44150
44158
44267
44339
44351
44385
44406
44408
44426
44841
44846
44932
45200
46254
46487
46580
46601
46667
46832
46912
46943
46944
46946
46955
46956
46958
47529
47564
47578
47619
47624
47648
47925
47954
48105
48369
48601
48655
48666
48989
48997
49012
49018
49084
49092
49094
49100
49101
49103
49123
49134
49175
49184
49931
[ 392 ]
3155
3171
3174
3192
3197
3251
3253
3260
3290
3291
3294
3296
3297
3298
3305
3306
3328
3332
3380
3387
3394
3395
3399
3400
3402
3405
3420
3431
3512
3593
3600
3606
3609
3615
3629
3643
3649
3660
3667
3672
3685
3690
3691
3714
3716
3718
3719
3728
3743
3744
3747
3754
3757
3797
3825
3827
3852
3855
3856
3857
3860
3861
3881
3882
3886
3890
3891
3893
3899
3900
3901
3902
3906
3913
3924
3928
3949
4017
4018
4530
4596
4598
4915
4934
5080
5163
5165
5166
5975
5999
6001
6003
6006
6015
6519
6532
6556
6561
6566
6568
6570
6571
6572
6574
6576
6580
6582
6586
6588
6593
6594
6597
6599
6605
6606
6607
6608
6609
6610
6613
6628
6630
6631
6634
6640
6641
6649
6659
6663
6665
6670
6672
6678
6681
6688
6697
6703
6712
6713
6714
6725
6728
6729
6731
6734
6737
6741
6750
6755
6757
6760
6768
6771
6796
6832
6834
6853
6859
6865
6866
6867
6870
6881
6885
6887
6888
6890
6909
6922
6927
6928
6932
6933
6937
6952
6953
6954
6959
6965
6968
6971
6973
6974
6979
6980
6996
6997
7001
7002
7007
7022
7026
7029
7030
7031
7036
7041
7042
7068
7073
7086
7090
7101
7110
7132
7151
7166
7178
7182
7183
7186
7195
7198
7223
7228
7233
7235
7236
7237
7241
7244
7260
7266
7269
7276
7286
7295
7315
7316
7320
7328
7332
7335
7336
7347
7348
7354
7355
7357
7362
7368
7370
7372
7373
7378
7394
7397
7399
7402
7403
7404
7411
7414
7419
7423
7424
7425
7427
7439
7449
7451
7454
7455
7458
7464
7470
7476
7477
7478
7479
7484
7497
7500
7508
7511
7512
7525
7539
7541
7542
7544
7555
7557
7565
7573
7584
7595
7604
7606
7615
7618
7625
7645
7651
7652
7654
7655
7659
7670
7671
7672
7673
7685
7686
7688
7690
7704
7708
7711
7714
7717
7720
7725
7726
7731
7733
7734
7735
7738
7744
7746
7748
7749
7752
7754
7755
7756
7757
7759
7762
7764
7765
7766
7769
7771
7773
7774
7775
7776
7779
7781
7782
7784
7787
7795
7798
7803
7805
7807
7809
7812
7813
7814
7816
7817
7818
7819
7825
7827
7828
7829
7831
7832
7833
7835
7836
7837
7844
7845
7853
7855
7856
7860
7861
7862
7863
7866
7875
7905
7912
7928
7929
7930
7932
7938
7940
7942
7947
7949
7954
7955
7958
7961
7962
7970
7976
7978
7979
7980
7996
8002
8005
8013
8016
8019
8021
8025
8027
8029
8037
8040
8042
8043
8045
8048
8050
8053
8062
8065
8069
8072
8073
8079
8081
8082
8084
8101
8102
8130
8138
8140
8158
8161
8163
8164
8166
8180
8190
8208
8214
8217
8218
8221
8223
8224
8227
8237
8240
8243
8245
8247
8276
8362
8366
8368
8369
8373
8374
8376
8383
8460
8467
8471
8473
8481
8486
8487
8494
8495
8500
8501
8504
8506
8507
8513
8514
8523
8530
8536
8546
8554
8557
8567
8570
8575
8576
8580
8583
8586
8593
8594
8595
8596
8597
8598
8599
8602
8603
8605
8607
8609
8611
8617
8619
8622
8638
8645
8654
8987
8989
8990
8991
8992
8993
8995
8999
9004
9027
9030
9035
9045
9051
9061
9067
9068
9073
9075
9076
9079
9085
9089
9092
9097
9154
9248
9253
9255
9256
9289
9299
9345
9367
9377
9537
9545
9566
9573
9576
9582
9583
9586
9587
9589
9603
9607
9634
9638
9652
9689
9691
9692
9695
9696
9699
9704
9705
9706
9722
9736
9739
9741
9745
9762
9768
9772
9774
9814
9815
9826
9830
9837
9839
9859
9861
9864
9865
9875
9877
9954
10030
10341
10364
10365
10372
10376
10383
10387
10388
10390
10396
10397
10401
10402
10403
10405
10407
10413
10415
10416
10417
10420
10422
10423
10424
10426
10427
10436
10446
10468
10474
10489
10490
10493
10499
10512
10520
10531
10533
10569
10585
10592
10595
10598
10617
10716
10871
11021
11288
11356
11485
11486
11487
11489
12614
12756
12824
12835
12836
12845
12850
12867
13035
13043
13045
13072
13073
13077
13115
13126
13134
13147
13166
13191
13221
13236
13281
13289
13290
13292
13294
13299
13306
13326
13335
13351
13381
13389
13411
13421
13485
13489
13491
13494
13503
13504
13518
13535
13536
13553
13563
13566
13570
13571
13572
13574
13578
13588
13590
13593
13600
13607
13609
13610
13613
13618
13624
13633
13634
13637
13642
13644
13651
13659
13679
13685
13692
13698
13713
13751
13752
13782
13784
13808
13843
13845
13909
13940
13978
13980
13981
13985
14013
14053
14061
14067
14068
14144
14146
14148
14368
14393
14439
14440
14442
14444
14445
14447
14448
14455
14459
14460
14461
14463
14487
14498
14576
14599
14678
14688
14711
14767
14852
14857
14858
14864
14872
15034
15038
15043
15144
15164
15182
15183
15189
15219
15220
15221
15243
15354
15363
15377
15380
15513
15514
15534
15576
15587
15660
15665
15676
15685
15733
15740
15761
15767
15786
15788
15798
15799
15805
15806
15810
15814
15823
15824
15827
15829
15830
15831
15832
15834
15889
15897
15899
15900
15901
16216
16224
16228
16229
16230
16240
16250
16275
16327
16334
16352
16358
16360
16374
16377
16383
16420
16560
16690
16760
16769
17142
17143
17152
17157
17159
17161
17163
17164
17165
17171
17203
17218
17235
17236
17437
17438
17449
17450
17452
17466
17472
17501
17502
17505
17523
17528
17662
17711
17727
17755
17769
17781
17782
17783
17784
17785
17789
17790
17798
17799
17801
17803
17822
17823
17825
17826
17832
17839
17840
17847
17850
17851
17853
17862
17863
17868
17870
17874
17875
17957
17991
18004
18037
18105
18147
18256
18318
18320
18322
18344
18354
18371
18373
18385
18392
18400
18538
18569
18575
18580
18581
18586
18599
18608
18610
18612
18615
18644
18659
18663
18675
18685
18694
18708
18714
18716
18723
18737
18758
18850
19024
19027
19377
19379
19382
19385
19412
19443
19617
19620
19642
19643
19645
19647
19666
19686
19719
19720
19736
19737
19738
19740
19749
19751
19759
19765
19767
19768
19769
19787
19790
19806
19815
19820
19829
19833
19836
19838
19841
20186
20200
20204
20213
20225
20249
20260
20261
20262
20263
20265
20266
20273
20276
20283
20289
20293
20295
20302
20304
20307
20308
20751
20765
20782
20793
20813
20825
20827
20829
20836
20875
20883
20885
20887
20888
20895
20903
20908
20914
20915
20927
20936
20950
20952
20969
20972
20981
20984
20987
20990
20996
21000
21496
21501
21502
21505
21506
21507
21829
21833
21851
21855
21883
21886
21887
21905
21911
21917
21943
22188
22192
22255
22372
22373
22376
22660
22704
22711
22751
22780
22784
22805
22809
22817
22828
22866
22867
22868
22974
22977
22980
22984
23004
23005
23017
23018
23019
23257
23259
23263
23520
23592
23730
23963
23968
24037
24141
24201
24204
24205
24218
24237
24244
24248
24254
24262
24270
24272
24273
24276
24279
24280
24288
24292
24297
24304
24306
24314
24316
24319
24328
24329
24330
24331
24332
24336
24342
24344
24345
24347
24354
24355
24356
24367
24371
24380
24391
24394
24398
24399
24406
24414
24451
24467
24485
24488
24489
24497
24499
24502
24503
24524
24540
24546
24550
24574
24621
24622
24632
24642
24661
24664
24665
24666
24667
24710
24720
24731
24735
24742
24753
24755
24765
24775
24783
24784
24792
24795
24804
24819
24844
24872
24874
24903
25119
25127
25137
25164
25205
25259
25268
25271
25298
25307
25353
25378
25396
25398
25445
25447
25480
25486
25487
25489
25502
25504
25507
25515
25518
25549
25558
25560
25561
25564
25570
25576
25579
25582
25583
25587
25589
25592
25609
25612
25616
25627
25631
25637
25647
25650
25657
25659
25660
25663
25666
25668
25671
25700
25705
25721
25727
25757
25775
25778
25801
25803
25825
25831
25844
25862
25865
25901
25903
25906
25909
25920
25935
25936
25938
25968
25975
25996
26000
26004
26011
26012
26014
26018
26019
26022
26042
26048
26057
26058
26063
26067
26069
26077
26078
26081
26082
26101
26109
26111
26112
26118
26123
26124
26131
26135
26149
26165
26168
26170
26174
26179
26183
26184
26187
26198
26199
26208
26232
26237
26239
26243
26244
26250
26252
26254
26264
26265
26298
26300
26303
26317
26358
26359
26379
26382
26411
26417
26419
26425
26426
26427
26428
26432
26436
26442
26444
26461
26516
26520
26522
26545
26546
26609
26644
26646
26668
26670
26677
26678
26687
26695
26715
26735
26764
26782
26784
26785
26803
26808
26816
26824
26832
26834
26836
26842
26848
26851
26853
26854
26861
26866
26870
26889
26979
26992
27000
27003
27008
27010
27011
27012
27015
27017
27019
27020
27027
27028
27032
27036
27037
27047
27051
27077
27081
27082
27085
27089
27090
27091
27094
27098
27102
27103
27105
27107
27110
27112
27113
27115
27116
27117
27123
27128
27129
27131
27134
27136
27137
27138
27144
27155
27161
27162
27164
27184
27189
27199
27235
27247
27263
27272
27291
27294
27300
27303
27341
27353
27372
27380
27382
27387
27389
27391
27392
27393
27394
27400
27405
27407
27409
27411
27415
27420
27431
27432
27433
27440
27443
27454
27458
27465
27474
27475
27476
27489
27496
27499
27503
27504
27509
27514
27526
27530
27537
27544
27549
27559
27570
27573
27605
27614
27620
27621
27622
27640
27642
27651
27654
27655
27656
27660
27664
27671
27680
27692
27694
27700
27738
27746
27747
27751
27756
27758
27761
27768
27770
27772
27780
27781
27792
27793
27815
27841
27846
27852
27857
27862
27864
27873
27879
27896
27963
27964
27965
27978
27991
27996
28001
28009
28011
28013
28030
28051
28052
28060
28087
28098
28106
28115
28120
28139
28159
28220
28270
28274
28281
28294
28301
28303
28312
28318
28319
28344
28383
28404
28408
28412
28473
28494
28495
28496
28499
28714
28831
28883
29039
29145
29208
29264
29297
29330
29333
29342
29423
29424
29426
29430
29464
29468
29471
29476
29481
29484
29486
29527
29529
29559
29569
29699
29705
29706
29714
29740
29843
29847
29920
29921
29925
30034
30035
30080
30108
30109
30110
30111
30112
30113
30115
30118
30120
30122
30125
30161
30465
30650
30661
30669
30673
30695
30704
30706
31166
31326
31417
31438
31479
31537
31547
31557
31625
31642
31659
31679
31683
31745
31793
31825
31848
31893
31894
31896
31897
31898
31903
31945
31951
31968
31980
31984
33068
33074
33093
33144
33179
33233
33251
33252
33279
33284
33362
33397
33410
33421
33438
33441
33442
33443
33447
33625
33628
33646
33657
33661
33666
33672
33682
33688
34374
34378
34389
34406
34409
34420
34447
34450
34458
34465
34476
34479
34514
34530
34536
34567
34569
34571
34585
34592
34602
34609
34619
34634
34638
34654
34658
34680
34696
34709
34737
34746
34754
34780
34781
34783
34786
34790
34792
34796
35469
35471
35551
35555
35559
35564
35583
35584
35612
35638
35655
35750
35784
35811
35813
35815
35837
35868
35935
35938
37557
37616
37623
37642
37649
37655
38046
38233
38238
38252
38628
38803
38813
38824
38834
38850
38858
38864
38866
38869
38874
38903
38911
38932
38951
38970
38991
38999
39006
39048
39075
39090
39095
39423
39426
39428
39437
39443
39446
39447
39463
39464
39465
39468
39469
39482
39486
39488
39489
39512
39525
39527
39532
39542
39547
39550
39554
39555
39558
39571
39573
39693
39737
39740
39765
39803
39940
39949
39954
39959
39960
39964
39972
39986
39993
40000
40007
40014
40016
40020
40024
40047
40049
40095
40097
40112
40116
40122
43522
43870
43885
43886
43909
43926
43997
43998
44050
44087
44088
44091
44092
44111
44132
44349
44411
44413
44433
45018
45171
45194
45195
45197
45198
45199
45202
45211
45422
46082
46174
46177
46922
47528
47559
47571
47575
47650
47655
47657
47667
47672
47817
47839
47882
47885
48063
48106
48301
48368
48433
48538
48593
48612
48635
48653
48661
48664
48669
48706
48710
48726
48806
48894
48898
48914
48938
48960
49015
49056
49057
49058
49064
49069
49074
49075
49087
49095
49097
49105
49113
49130
49138
49139
49155
49162
49169
49761
[ 393 ]
3153
3157
3289
3659
3723
3785
3786
3787
3799
3888
3897
3910
3914
3915
5083
6013
6579
6581
6589
6590
6592
6700
6756
6758
6762
6763
6765
6766
6767
6773
6882
6884
7231
7232
7234
7240
7251
7367
7468
7682
7727
7867
7934
7935
7946
7952
7956
8028
8139
8365
8367
8371
8464
8520
8521
8522
9096
9577
9584
9688
9694
9754
9786
9816
9823
10381
10408
10409
10411
10418
10428
10433
10435
10437
10441
10448
10451
10599
12822
13171
13239
13302
13522
13598
14071
15056
15633
15634
15635
16333
16341
18397
18613
18687
19026
19739
19742
19770
19778
19819
19837
20784
20953
20983
20997
21495
21910
22193
22199
23260
24243
24274
24320
24322
24404
24408
24413
24415
24419
24436
24449
24454
24486
24498
24576
24582
24590
24591
24593
24595
24600
24606
24612
24624
24637
24639
24641
24646
24663
24673
24681
24694
24695
24714
24716
24718
24724
24727
24771
24786
24787
24798
24803
24849
24854
24855
24871
24979
24984
24992
24994
25008
25029
25032
25035
25038
25041
25063
25118
25128
25130
25163
25169
25196
25202
25206
25213
25248
25249
25444
25501
25505
25510
25513
25516
25517
25624
25677
25919
25969
25972
26038
26044
26046
26060
26061
26066
26071
26073
26083
26085
26088
26089
26110
26121
26126
26140
26144
26145
26260
26287
26293
26294
26295
26296
26313
26430
26433
26456
26594
27031
27078
27083
27118
27340
27348
27399
27447
27452
27457
27459
27460
27468
27502
28088
28126
29568
30114
30116
33435
33679
34414
34416
34418
34421
34429
34430
34467
34528
34615
37626
38844
38860
39522
39957
39962
40151
43466
43525
43812
43816
43861
43871
44264
44346
45017
45158
45173
45208
45224
45230
45264
45281
45289
45295
45363
45372
45377
45379
45411
46489
46490
47548
47553
47583
47670
47673
47675
47679
48025
48043
48062
48275
48294
48366
48444
48561
48676
48921
49144
[ 394 ]
2596
2611
2625
2653
3725
3916
7230
8242
8463
9006
13041
16338
16342
24430
24433
24434
24445
24446
24448
24470
24578
24583
24588
24638
24678
24679
24685
24691
24701
24704
24705
24707
24715
24730
24732
24785
24836
24841
24842
24845
24857
24860
24870
24910
24970
24973
25016
25027
25028
25050
25056
25079
25210
25211
25224
25253
25490
25491
25492
25493
25494
25495
25496
26072
26093
26185
26283
26286
26344
26345
27342
27346
27349
30668
31975
43817
45266
45279
45384
45402
46492
47552
47594
47647
47653
48746
[ 395 ]
1972
2438
2440
2499
2506
2528
2553
2570
2587
2588
2600
2602
2603
2604
2606
2608
2615
2616
2622
2627
2630
2634
2642
2644
2645
2647
2649
2650
2664
2709
2717
2718
2723
7229
24684
24702
24827
24828
24834
24839
24846
24848
24858
24889
24942
24989
25251
43796
43797
45305
45317
45321
[ 396 ]
2024
2027
2058
2067
2415
2418
2439
2451
2455
2461
2500
2501
2504
2533
2554
2556
2558
2624
2635
2648
2659
2672
2677
2678
2681
2683
2684
2693
2702
2706
2711
2712
2714
2722
2725
24423
24830
24835
24838
24931
25107
25235
43792
45292
[ 397 ]
882
2025
2228
2231
2240
2251
2253
2322
2327
2328
2331
2338
2344
2348
2373
2374
2489
2637
2715
[ 398 ]
2245
2246
2250
2252
2254
2255
2320
2321
2341
2351
2392
2395
[ 399 ]
2268
2269
2306
2310
[ 400 ]
2263
2317
[ 416 ]
8866
8869
8871
8880
8885
8901
8904
8906
8907
8909
8920
8945
[ 417 ]
8865
8867
8872
8874
8875
8876
8879
8881
8883
8884
8889
8891
8892
8893
8894
8895
8896
8897
8898
8902
8911
8913
8915
8917
8919
8923
8924
8925
8929
8930
8933
8935
8937
8938
8946
8948
[ 418 ]
8411
8863
8918
8936
8939
8942
8950
8953
8955
8959
8961
47016
47048
47431
47447
47449
47450
47480
50096
52795
56155
60617
60620
[ 419 ]
4028
4282
4285
4311
4313
4316
4359
6144
6145
6147
6154
6155
6156
6165
6178
6189
6193
6197
6202
6204
6240
6253
6262
6274
6364
6460
8399
8410
8941
8954
8957
8958
8962
8963
8964
9464
10155
10695
11442
11448
11449
15329
15387
16009
17889
19970
20152
20439
20461
22919
30446
30826
36908
37374
37407
37419
37511
39311
39382
47007
47018
47019
47063
47067
47073
47179
47180
47189
47203
47288
47289
47308
47309
47338
47343
47390
47439
47441
47445
47468
47479
47498
47502
50051
50068
50082
50091
50128
50153
50160
50164
50177
50190
50197
50204
50216
50224
50226
50267
50302
50305
50307
50308
50319
50325
51171
51547
51855
51868
52835
54554
54555
54568
54570
55671
56016
56028
60630
61469
61888
61938
62106
63979
[ 420 ]
3838
4027
4039
4059
4086
4087
4110
4120
4129
4171
4177
4178
4179
4206
4209
4210
4211
4215
4281
4284
4286
4296
4301
4302
4304
4305
4308
4310
4315
4317
4320
4322
4323
4327
4328
4330
4333
4339
4340
4341
4342
4344
4346
4348
4351
4352
4353
4354
4356
4358
4362
4378
4392
4401
4689
4693
4963
5247
5461
5464
5467
5483
5484
5485
5487
5505
5506
5513
5523
5525
5532
5565
5566
5574
5582
5583
5590
5605
5649
5653
5655
5657
5664
5665
5667
5672
5691
5692
5693
5694
5730
5732
5735
5738
5743
5744
5746
5753
5762
5764
5765
5774
5802
5825
5850
5864
5867
5868
5894
5909
5910
5915
5916
5920
5923
5925
5927
5934
5944
5946
5953
5954
6058
6141
6142
6143
6149
6150
6152
6153
6157
6159
6162
6164
6166
6168
6180
6182
6183
6186
6188
6190
6191
6194
6195
6198
6201
6203
6215
6224
6228
6229
6231
6233
6234
6238
6245
6247
6256
6257
6259
6265
6272
6286
6288
6290
6306
6310
6361
6368
6441
6459
6464
8397
8398
8401
8412
8727
8808
8811
8814
8966
8970
8977
8978
9455
9457
9463
9465
9467
9491
9493
9499
9508
9509
9513
9522
10071
10085
10086
10092
10130
10132
10151
10156
10161
10163
10194
10202
10205
10208
10215
10224
10225
10230
10234
10237
10242
10248
10251
10311
10637
10640
10644
10648
10656
10692
10699
10773
10850
10887
10890
10891
10973
10989
10992
11023
11043
11049
11071
11072
11405
11417
11421
11427
11432
11433
11434
11435
11441
11443
11444
11446
11450
11451
11455
11458
11535
11536
11538
11540
11552
11553
11556
11558
11559
11563
11567
11571
11579
11589
11590
11591
11609
11611
11628
11630
11631
11642
11644
11656
11664
11672
11678
11689
11691
11694
11702
11705
11713
11714
11719
11723
11724
11725
11726
11737
11738
11739
11747
11817
11827
11831
11835
11839
11840
11930
11936
11938
11945
11948
11955
11974
11976
11988
11992
11997
11998
12033
12034
12038
12056
12114
12118
12136
12163
12166
12172
12193
12200
12232
12244
12335
12339
12344
12349
12351
12355
12357
12375
12388
12393
12400
12448
12451
12453
12482
12488
12489
12518
12549
12573
12575
12576
12579
12584
12586
12589
12600
12607
12645
12664
12666
12794
12801
12887
12958
12974
12991
13105
14085
14111
14115
14117
14122
14184
14185
14188
14190
14192
14193
14196
14200
14204
14206
14209
14214
14217
14222
14238
14249
14256
14268
14269
14275
14278
14279
14291
14292
14294
14297
14509
14645
14665
14776
14792
14801
14813
14815
14816
14817
14818
14819
14820
14823
14830
14884
14888
14889
14892
14923
14924
14929
14931
14937
14940
14941
14946
14948
14952
14959
14964
14965
14966
14970
14971
14972
14994
15001
15063
15066
15067
15068
15074
15080
15081
15091
15095
15096
15113
15119
15124
15128
15131
15135
15255
15259
15260
15264
15269
15273
15281
15314
15345
15348
15388
15390
15397
15398
15404
15599
15600
15846
15849
15851
15861
15938
15950
15951
15956
15962
15966
15968
15970
15972
15973
15975
15977
15982
15983
15984
15985
15986
15993
15997
15998
16003
16004
16012
16013
16017
16019
16021
16028
16029
16030
16035
16036
16044
16045
16069
16087
16104
16116
16123
16124
16129
16134
16135
16138
16314
16315
16394
16482
16483
16490
16627
16635
16753
16904
16909
16912
16915
16916
16918
16923
16925
16930
16931
16933
16934
16936
16938
16940
16941
16972
16976
16982
16987
16991
16997
16998
17001
17002
17006
17008
17016
17019
17028
17057
17073
17074
17085
17090
17091
17092
17093
17282
17284
17289
17290
17291
17293
17301
17303
17304
17307
17308
17310
17314
17328
17330
17335
17339
17340
17341
17344
17347
17351
17352
17359
17363
17365
17375
17384
17387
17396
17398
17605
17631
17888
17895
18080
18101
18171
18172
18214
18216
18223
18250
18772
18775
18794
18796
18875
18924
18926
18941
18966
18967
18976
18978
18979
19001
19133
19144
19145
19150
19155
19159
19160
19163
19166
19167
19233
19235
19240
19242
19245
19259
19267
19270
19271
19274
19275
19279
19280
19282
19283
19300
19305
19310
19461
19509
19516
19526
19538
19559
19889
19892
19956
19957
19958
19959
19964
19971
19973
19977
19985
19990
20000
20012
20013
20015
20017
20020
20021
20022
20118
20119
20132
20137
20148
20158
20164
20320
20330
20331
20344
20365
20375
20377
20378
20379
20385
20392
20416
20430
20435
20437
20438
20442
20443
20445
20447
20452
20467
20485
20528
20531
20569
20571
20575
20600
20625
20635
20655
20681
21018
21109
21155
21162
21166
21176
21264
21284
21286
21304
21445
21533
21666
21672
21674
21713
21714
21728
21737
21784
21807
21808
21812
21992
22058
22059
22108
22111
22121
22136
22142
22300
22301
22436
22443
22452
22454
22458
22460
22469
22550
22556
22572
22573
22575
22576
22582
22593
22596
22597
22598
22672
22675
22678
22683
22687
22688
22689
22918
22922
22944
23344
23377
23383
23386
23394
23398
23400
23401
23402
23404
23413
23421
23427
23686
26154
26155
26156
28736
28737
28738
28750
28751
28755
28758
28778
28791
28967
28968
28973
28996
28999
29010
29057
29398
30444
30445
30451
30722
30724
30736
30738
30740
30743
30755
30756
30766
30769
30773
30793
30794
30796
30797
30811
30812
30863
30961
30965
30967
30972
30973
30975
31024
32007
32009
32011
32016
32021
32044
32052
32083
33718
33743
33753
33785
33790
33791
33796
33798
33831
33845
33854
33903
33918
33934
33982
33984
33987
34005
34015
34019
34025
34026
34033
34045
34047
34061
34079
34085
34087
34093
34097
34103
34141
34153
34238
34245
34250
34262
34265
34269
35443
35885
35896
35903
35914
35915
35958
35959
35964
35970
35974
35975
35980
36005
36018
36021
36023
36024
36035
36036
36037
36050
36080
36082
36085
36087
36100
36106
36108
36109
36212
36236
36237
36252
36255
36302
36653
36678
36680
36711
36757
36759
36800
36810
36836
36837
36838
36853
36856
36859
36889
36911
36948
36953
36954
36955
37062
37157
37188
37364
37373
37398
37399
37405
37406
37408
37409
37421
37427
37428
37430
37436
37437
37439
37470
37472
37504
37712
37832
37837
37838
37848
37934
38423
39298
39309
39324
39371
39840
39870
47003
47005
47006
47012
47020
47022
47053
47072
47078
47118
47121
47133
47141
47146
47151
47164
47165
47168
47171
47172
47201
47202
47209
47313
47327
47342
47344
47351
47380
47410
50085
50092
50149
50152
50214
50217
50218
50272
50283
50293
50298
50318
51815
54561
56017
62088
[ 421 ]
3348
3464
3467
3835
3836
3837
3840
3973
3976
3982
3983
3984
4038
4040
4041
4051
4052
4055
4056
4060
4061
4063
4071
4073
4074
4075
4077
4081
4083
4084
4085
4088
4092
4093
4098
4105
4109
4111
4115
4116
4118
4119
4122
4126
4132
4157
4158
4160
4166
4170
4173
4174
4175
4176
4181
4183
4184
4190
4192
4193
4197
4204
4220
4223
4232
4233
4246
4247
4248
4250
4287
4297
4299
4334
4336
4337
4345
4360
4363
4364
4376
4380
4382
4383
4385
4393
4394
4397
4398
4399
4400
4402
4403
4404
4405
4411
4413
4415
4417
4419
4421
4424
4425
4426
4429
4432
4435
4437
4440
4443
4445
4446
4467
4468
4469
4486
4490
4503
4507
4512
4520
4553
4556
4559
4560
4611
4612
4634
4636
4639
4670
4672
4688
4694
4695
4696
4701
4731
4736
4737
4739
4742
4745
4750
4759
4766
4769
4770
4778
4779
4780
4787
4793
4794
4795
4809
4811
4812
4814
4815
4816
4820
4822
4823
4824
4827
4828
4830
4835
4836
4842
4858
4862
4870
4871
4872
4873
4874
4875
4883
4886
4895
4896
4899
4900
4904
4906
4925
4951
4954
4965
4970
4974
4975
4989
4992
4995
4997
4998
4999
5003
5005
5010
5012
5014
5016
5020
5022
5023
5027
5030
5031
5033
5034
5038
5096
5102
5118
5178
5206
5235
5248
5257
5291
5305
5308
5313
5330
5332
5345
5350
5351
5362
5363
5364
5365
5375
5393
5406
5411
5415
5416
5417
5418
5419
5422
5432
5435
5437
5451
5453
5458
5488
5489
5494
5497
5500
5508
5509
5512
5516
5522
5527
5529
5536
5537
5538
5543
5544
5547
5555
5559
5563
5564
5567
5572
5576
5577
5578
5581
5585
5587
5594
5607
5625
5631
5635
5637
5641
5643
5644
5645
5646
5652
5654
5656
5660
5661
5670
5671
5673
5674
5675
5676
5679
5680
5682
5684
5686
5687
5688
5706
5718
5719
5724
5728
5731
5747
5752
5755
5756
5760
5763
5767
5772
5773
5777
5795
5797
5799
5801
5803
5808
5814
5819
5820
5824
5828
5829
5834
5836
5837
5840
5843
5844
5845
5846
5851
5857
5859
5860
5863
5866
5870
5871
5874
5876
5878
5879
5885
5890
5899
5902
5905
5917
5919
5924
5937
5945
5950
5951
5955
5958
5962
5963
5966
6055
6057
6059
6061
6063
6066
6067
6072
6073
6074
6075
6080
6084
6085
6091
6096
6102
6106
6113
6115
6117
6119
6120
6121
6122
6125
6127
6132
6133
6134
6135
6136
6137
6139
6158
6163
6206
6237
6252
6297
6305
6312
6333
6358
6385
6396
6403
6407
6410
6412
6415
6431
6435
6445
6447
6455
6463
6465
6481
6482
6491
6494
6504
6509
8282
8308
8318
8328
8332
8333
8334
8396
8416
8419
8420
8433
8664
8729
8730
8738
8747
8756
8768
8787
8819
8831
8844
8846
8853
8858
8981
9192
9201
9213
9214
9216
9217
9325
9371
9394
9396
9426
9431
9433
9461
9471
9472
9475
9492
9502
9504
9507
9514
9525
9595
9914
9978
10004
10008
10010
10015
10054
10061
10065
10068
10072
10084
10102
10123
10167
10170
10171
10176
10185
10187
10193
10198
10201
10206
10207
10209
10223
10236
10249
10260
10287
10288
10289
10297
10321
10486
10541
10557
10609
10630
10633
10653
10661
10667
10678
10687
10700
10704
10784
10810
10811
10814
10816
10820
10823
10833
10846
10880
10884
10893
10912
10913
10914
10918
10920
10953
10957
10960
10961
10962
10964
10972
10976
10978
10995
10997
11002
11006
11009
11010
11011
11012
11015
11025
11039
11041
11066
11079
11089
11090
11100
11103
11109
11110
11144
11172
11179
11180
11207
11216
11232
11233
11251
11258
11296
11298
11334
11339
11347
11390
11408
11410
11412
11425
11456
11466
11469
11470
11472
11483
11521
11532
11557
11560
11565
11566
11568
11569
11570
11574
11580
11588
11606
11607
11615
11618
11620
11621
11622
11625
11634
11641
11648
11650
11652
11654
11655
11657
11658
11659
11660
11662
11663
11665
11667
11668
11669
11676
11677
11680
11685
11686
11687
11690
11692
11693
11695
11697
11698
11701
11712
11716
11717
11718
11720
11721
11722
11729
11740
11743
11744
11745
11746
11748
11757
11758
11759
11761
11762
11763
11765
11766
11767
11768
11769
11772
11773
11774
11776
11778
11779
11781
11782
11783
11785
11789
11791
11792
11795
11796
11799
11801
11802
11803
11804
11805
11806
11807
11808
11809
11813
11818
11819
11821
11822
11826
11828
11829
11830
11832
11833
11836
11837
11838
11841
11843
11844
11849
11851
11854
11855
11858
11859
11860
11864
11867
11868
11871
11875
11876
11877
11883
11884
11900
11912
11913
11915
11916
11917
11926
11927
11928
11931
11932
11937
11943
11944
11946
11949
11952
11954
11956
11957
11958
11959
11960
11961
11965
11967
11968
11971
11973
11975
11977
11978
11980
11985
11987
11989
11990
11991
11993
11996
11999
12002
12003
12004
12005
12008
12010
12011
12014
12016
12018
12022
12023
12025
12027
12029
12030
12031
12035
12036
12039
12045
12053
12057
12058
12066
12076
12088
12092
12093
12102
12113
12130
12131
12144
12147
12152
12154
12155
12159
12160
12164
12167
12168
12174
12183
12190
12192
12194
12195
12202
12206
12207
12209
12218
12224
12225
12228
12233
12235
12243
12245
12276
12283
12295
12298
12304
12307
12309
12312
12318
12336
12346
12352
12353
12359
12361
12362
12364
12365
12366
12368
12369
12371
12384
12386
12387
12391
12395
12396
12397
12398
12399
12401
12402
12403
12404
12405
12406
12407
12408
12409
12412
12414
12417
12421
12422
12425
12428
12430
12433
12437
12452
12468
12470
12474
12479
12486
12490
12499
12505
12517
12523
12526
12527
12534
12544
12551
12558
12578
12580
12581
12587
12588
12591
12592
12594
12598
12603
12610
12619
12639
12644
12647
12658
12659
12661
12663
12674
12679
12680
12682
12684
12687
12691
12698
12746
12762
12763
12764
12786
12795
12797
12856
12873
12875
12876
12879
12880
12882
12883
12884
12888
12889
12891
12893
12894
12896
12900
12904
12925
12927
12940
12950
12959
12968
12972
12973
12980
12981
12982
12984
12988
12989
12994
12999
13015
13016
13020
13021
13022
13023
13097
13099
13102
13340
13371
13374
13404
13406
13431
13432
13445
13468
13469
13703
13794
13829
13855
14026
14091
14108
14114
14181
14194
14197
14210
14221
14226
14227
14239
14241
14250
14273
14277
14280
14281
14286
14287
14308
14310
14328
14338
14341
14354
14416
14529
14539
14545
14554
14646
14651
14667
14737
14739
14740
14762
14770
14774
14777
14780
14784
14786
14789
14791
14794
14798
14807
14809
14822
14845
14878
14903
14905
14910
14919
14939
14967
14973
14982
14983
15012
15018
15019
15020
15021
15048
15061
15065
15070
15071
15075
15076
15078
15079
15083
15085
15092
15094
15099
15102
15109
15112
15116
15118
15122
15123
15125
15126
15129
15133
15134
15137
15138
15139
15145
15150
15153
15256
15258
15262
15265
15270
15280
15294
15298
15308
15309
15327
15332
15349
15385
15389
15393
15408
15419
15448
15451
15458
15462
15463
15473
15474
15475
15480
15492
15602
15603
15606
15610
15614
15682
15699
15717
15847
15863
15867
15916
15917
15918
15924
15925
15927
15928
15931
15932
15935
15936
15937
15940
15947
15976
15987
15990
15994
15996
16001
16005
16006
16020
16022
16040
16042
16046
16066
16071
16074
16075
16077
16078
16086
16089
16100
16105
16107
16110
16117
16118
16121
16125
16128
16133
16143
16169
16174
16202
16290
16291
16292
16293
16296
16298
16300
16302
16306
16308
16309
16311
16317
16389
16396
16399
16400
16476
16479
16480
16519
16526
16528
16537
16540
16542
16547
16552
16565
16576
16612
16613
16616
16618
16619
16621
16626
16629
16633
16634
16725
16726
16762
16776
16779
16781
16792
16793
16805
16809
16816
16819
16830
16842
16843
16856
16857
16860
16868
16877
16878
16917
16974
16989
16990
16992
16993
16995
16999
17004
17007
17009
17018
17029
17030
17032
17038
17039
17044
17045
17048
17053
17059
17060
17061
17064
17066
17068
17069
17075
17079
17084
17087
17088
17094
17095
17098
17103
17104
17269
17270
17271
17280
17296
17299
17302
17313
17320
17321
17346
17348
17349
17350
17353
17354
17355
17362
17382
17400
17402
17406
17544
17564
17567
17568
17573
17575
17576
17578
17581
17585
17588
17589
17592
17595
17597
17598
17600
17601
17602
17607
17611
17624
17625
17633
17651
17652
17655
17657
17660
17676
17677
17678
17682
17688
17701
17877
17884
17887
17897
17899
17983
18072
18075
18081
18085
18088
18089
18098
18103
18173
18176
18179
18187
18188
18190
18191
18213
18217
18219
18230
18243
18245
18270
18428
18429
18430
18431
18437
18442
18444
18458
18461
18463
18464
18465
18470
18478
18516
18518
18519
18521
18628
18771
18773
18776
18791
18797
18804
18813
18823
18826
18833
18841
18842
18846
18876
18887
18889
18891
18893
18896
18897
18901
18903
18906
18909
18928
18929
18931
18950
18952
18958
18959
18964
18965
18969
18971
18973
18974
18983
18984
18985
18988
18990
18991
19004
19007
19008
19010
19013
19040
19044
19051
19054
19056
19083
19134
19135
19136
19140
19147
19153
19156
19158
19210
19211
19213
19216
19234
19237
19238
19239
19241
19243
19244
19246
19252
19254
19256
19263
19268
19287
19289
19290
19291
19293
19294
19295
19298
19306
19320
19323
19335
19339
19340
19345
19415
19417
19419
19463
19471
19478
19510
19514
19517
19518
19520
19521
19522
19523
19528
19536
19537
19539
19541
19551
19552
19553
19561
19562
19565
19570
19571
19575
19578
19583
19586
19600
19696
19701
19868
19880
19883
19891
19896
19905
19906
19922
19923
19925
19926
19940
19942
19943
19944
19945
19951
19952
19955
19963
19969
19976
19983
19994
19995
19997
19999
20003
20004
20005
20011
20016
20018
20076
20078
20107
20113
20122
20126
20128
20129
20131
20140
20168
20176
20317
20322
20325
20327
20328
20340
20347
20349
20368
20380
20381
20384
20386
20394
20395
20398
20405
20412
20414
20422
20429
20431
20441
20454
20456
20457
20458
20459
20460
20466
20468
20469
20474
20478
20482
20483
20497
20498
20501
20504
20505
20512
20517
20522
20524
20525
20542
20544
20546
20547
20549
20554
20576
20579
20580
20582
20584
20585
20586
20629
20673
20684
20702
20703
20711
20719
20768
20796
20808
20845
20850
21014
21017
21046
21054
21079
21080
21084
21092
21095
21102
21103
21106
21107
21114
21117
21120
21124
21133
21144
21145
21147
21149
21159
21182
21183
21189
21190
21223
21270
21281
21291
21299
21301
21307
21318
21329
21331
21333
21341
21343
21347
21352
21354
21359
21362
21363
21383
21405
21409
21418
21419
21423
21427
21446
21457
21458
21469
21482
21489
21513
21522
21537
21546
21553
21577
21578
21579
21582
21585
21586
21591
21593
21595
21596
21599
21613
21627
21635
21640
21646
21653
21654
21655
21656
21657
21659
21661
21667
21668
21677
21678
21681
21683
21691
21692
21719
21722
21723
21766
21768
21773
21782
21787
21792
21798
21814
21837
21845
21926
21929
21958
21982
21983
21997
22002
22004
22007
22048
22098
22109
22160
22213
22250
22275
22286
22291
22305
22323
22332
22333
22358
22400
22405
22414
22419
22450
22463
22467
22468
22476
22538
22545
22549
22559
22565
22590
22595
22599
22654
22655
22670
22673
22690
22712
22715
22738
22739
22740
22741
22743
22745
22746
22747
22838
22850
23093
23119
23250
23290
23291
23295
23310
23315
23317
23321
23325
23329
23333
23339
23340
23345
23346
23350
23352
23356
23357
23368
23372
23374
23376
23378
23405
23414
23415
23416
23418
23419
23425
23426
23431
23432
23437
23486
23487
23492
23494
23495
23497
23498
23509
23522
23535
23558
23561
23562
23569
23571
23573
23600
23602
23603
23604
23685
23699
23720
23728
23782
23808
23825
23830
23846
23874
23891
23892
24031
24050
24120
24121
24144
24162
24179
24181
24209
26391
26543
26630
28243
28376
28378
28462
28466
28524
28530
28531
28575
28579
28589
28593
28596
28597
28600
28601
28602
28607
28608
28614
28635
28642
28653
28658
28660
28699
28700
28732
28735
28739
28740
28747
28748
28749
28767
28769
28770
28775
28777
28780
28782
28783
28784
28789
28790
28793
28794
28876
28877
28890
28958
28959
28961
28963
28964
28965
28969
28975
28976
28977
28978
28992
28993
29001
29005
29006
29011
29014
29016
29017
29018
29020
29025
29049
29056
29058
29064
29065
29066
29067
29111
29113
29118
29136
29198
29226
29278
29305
29308
29311
29372
29574
29576
29577
29606
29649
29686
29718
29821
29946
29950
29954
29964
29974
29991
30005
30006
30016
30022
30028
30074
30153
30188
30190
30198
30208
30226
30231
30249
30250
30251
30257
30259
30262
30286
30303
30344
30420
30425
30639
30712
30717
30735
30747
30754
30757
30783
30807
30831
30835
30837
30838
30840
30847
30851
30858
30859
30862
30868
30875
30884
30897
30901
30924
30929
30957
30960
30968
30982
31001
31004
31006
31009
31010
31011
31016
31023
31035
31036
31040
31047
31049
31080
31102
31564
31599
31607
31610
31612
31613
31614
31617
31622
31702
31711
31712
31714
31718
31721
31919
31924
32008
32012
32017
32018
32026
32028
32030
32036
32049
32093
32600
32874
32876
32891
33488
33491
33500
33719
33741
33742
33755
33781
33792
33799
33801
33839
33842
33844
33847
33848
33863
33864
33877
33884
33887
33892
33895
33898
33904
33917
33919
33927
33928
33933
34021
34036
34052
34063
34067
34068
34076
34082
34101
34102
34104
34107
34108
34109
34110
34130
34140
34144
34150
34158
34169
34170
34191
34195
34196
34197
34200
34202
34213
34216
34220
34223
34230
34246
34254
34261
34270
34274
34278
34288
35446
35451
35571
35677
35780
35878
35890
35894
35905
35909
35917
35918
35920
35923
35924
35927
35960
35961
35962
35982
35984
36011
36039
36041
36049
36052
36065
36088
36112
36166
36262
36271
36279
36463
36599
36670
36683
36726
36749
36752
36803
36849
36860
36861
36866
36882
36892
36893
36914
36920
36924
36926
36950
36999
37015
37064
37164
37172
37179
37375
37400
37413
37420
37432
37447
37600
37706
37732
37751
37792
37826
37844
37892
37929
37954
37974
37981
38050
38296
38298
38350
38575
38753
38939
39672
39847
39848
39861
39863
43058
44487
46296
46642
46710
46992
46998
47011
47024
47152
47155
47374
[ 422 ]
3282
3316
3320
3342
3346
3347
3349
3362
3363
3412
3452
3456
3466
3469
3471
3472
3473
3474
3476
3483
3484
3485
3487
3494
3497
3499
3506
3517
3524
3542
3547
3703
3708
3758
3834
3841
3843
3845
3951
3962
3980
3981
3988
3991
3997
3999
4021
4022
4026
4036
4045
4049
4050
4053
4062
4099
4100
4106
4113
4144
4156
4180
4187
4189
4195
4202
4219
4222
4224
4225
4227
4255
4261
4270
4273
4274
4279
4290
4291
4293
4294
4367
4368
4377
4379
4384
4396
4414
4420
4422
4423
4430
4434
4438
4442
4444
4447
4448
4451
4457
4459
4462
4477
4481
4484
4485
4487
4488
4493
4494
4506
4511
4514
4515
4516
4518
4521
4523
4525
4527
4542
4564
4567
4568
4576
4599
4603
4606
4609
4613
4615
4630
4635
4640
4642
4643
4648
4651
4656
4660
4662
4663
4665
4674
4676
4677
4681
4683
4684
4685
4703
4706
4708
4709
4710
4720
4722
4728
4732
4738
4740
4741
4746
4747
4751
4753
4755
4756
4757
4763
4765
4767
4768
4771
4772
4776
4782
4783
4788
4790
4791
4792
4800
4801
4802
4817
4829
4838
4839
4840
4855
4856
4857
4865
4866
4868
4878
4882
4889
4894
4897
4901
4907
4908
4909
4910
4924
4926
4927
4929
4937
4938
4941
4946
4950
4952
4958
4960
4967
4971
4973
4996
5002
5011
5013
5018
5019
5039
5046
5067
5078
5127
5134
5152
5179
5208
5210
5234
5243
5245
5255
5256
5260
5261
5263
5269
5271
5272
5273
5279
5280
5282
5285
5293
5297
5298
5299
5302
5304
5309
5310
5312
5314
5317
5318
5324
5331
5333
5336
5338
5341
5343
5353
5354
5356
5359
5360
5366
5368
5372
5376
5381
5388
5392
5396
5408
5413
5426
5434
5439
5468
5492
5493
5499
5518
5539
5545
5659
5677
5727
5749
5809
5815
5839
5841
5928
5980
5981
5983
5992
6034
6037
6038
6045
6047
6049
6052
6053
6068
6070
6076
6078
6082
6083
6087
6088
6100
6105
6108
6110
6111
6114
6116
6118
6130
6140
6324
6329
6335
6336
6337
6339
6341
6349
6352
6394
6400
6405
6413
6419
6420
6424
6427
6451
6483
6485
6487
6488
6498
6503
6505
6510
6517
6529
6829
6839
6840
6842
7134
7263
7444
7566
7883
7893
7906
7909
7915
7974
8074
8113
8127
8136
8167
8232
8266
8280
8283
8306
8309
8310
8313
8315
8317
8335
8417
8427
8434
8437
8438
8439
8440
8532
8726
8734
8748
8765
8771
8772
8777
8793
8975
9047
9103
9110
9113
9115
9116
9120
9133
9138
9161
9188
9220
9229
9234
9241
9265
9274
9285
9302
9314
9315
9327
9328
9333
9335
9336
9338
9339
9340
9341
9348
9351
9352
9356
9358
9368
9376
9391
9395
9402
9404
9413
9418
9419
9429
9435
9445
9459
9479
9512
9533
9534
9555
9558
9594
9636
9647
9657
9658
9720
9761
9784
9797
9848
9853
9854
9885
9889
9896
9911
9912
9916
9918
9919
9920
9925
9933
9939
9946
9977
9983
9984
10000
10001
10005
10006
10007
10011
10018
10040
10057
10105
10113
10168
10175
10307
10352
10359
10431
10455
10498
10508
10518
10556
10588
10605
10606
10610
10612
10613
10626
10631
10670
10671
10677
10697
10703
10876
10966
10975
10977
10999
11000
11001
11005
11013
11016
11035
11053
11080
11115
11119
11122
11142
11149
11153
11168
11171
11176
11178
11188
11192
11193
11201
11209
11221
11224
11244
11248
11252
11261
11262
11272
11273
11274
11291
11292
11294
11299
11301
11302
11303
11308
11329
11332
11333
11341
11343
11345
11351
11363
11364
11369
11381
11382
11383
11398
11399
11401
11473
11474
11494
11503
11546
11548
11616
11709
11711
11715
11764
11770
11784
11787
11794
11820
11842
11941
12020
12042
12054
12065
12085
12090
12104
12129
12380
12535
12568
12622
12627
12628
12655
12656
12660
12671
12672
12673
12675
12692
12693
12697
12701
12702
12703
12705
12707
12709
12710
12712
12718
12725
12726
12727
12728
12729
12731
12738
12744
12745
12747
12765
12773
12776
12791
12809
12812
12814
12847
12848
12860
12864
12865
12890
12914
12918
12935
12936
12965
12977
12979
12983
12990
12993
12996
12997
13014
13061
13063
13064
13065
13071
13074
13111
13140
13152
13161
13173
13174
13179
13199
13266
13267
13342
13360
13364
13376
13380
13405
13408
13433
13437
13440
13449
13452
13470
13476
13580
13715
13736
13778
13780
13788
13798
13800
13811
13813
13814
13828
13838
13850
13852
13853
13854
13857
13858
13859
13862
13871
13872
13873
13874
13876
13886
13892
13897
13924
13961
14002
14029
14030
14103
14104
14133
14154
14156
14157
14179
14183
14203
14228
14254
14266
14299
14303
14361
14363
14401
14402
14403
14407
14408
14410
14422
14458
14478
14483
14486
14503
14507
14508
14510
14520
14531
14546
14547
14559
14560
14561
14562
14563
14564
14590
14593
14596
14598
14608
14614
14622
14623
14628
14633
14637
14679
14681
14691
14700
14703
14709
14710
14712
14713
14720
14724
14728
14758
14771
14871
14874
14879
14896
14898
14904
14926
14986
14990
14993
14995
15006
15023
15024
15025
15032
15033
15050
15060
15151
15161
15165
15167
15209
15217
15226
15233
15238
15239
15242
15322
15355
15373
15374
15410
15427
15443
15445
15446
15464
15468
15485
15487
15497
15519
15531
15542
15543
15548
15569
15601
15604
15612
15625
15627
15655
15658
15670
15674
15677
15688
15689
15710
15765
15865
15914
15920
15922
15933
15934
15992
16148
16164
16167
16168
16171
16183
16191
16193
16194
16199
16201
16206
16211
16257
16271
16279
16282
16323
16370
16381
16424
16434
16436
16462
16465
16468
16469
16473
16499
16522
16525
16535
16536
16543
16544
16546
16548
16555
16561
16571
16592
16601
16603
16604
16630
16667
16687
16694
16695
16697
16699
16719
16722
16723
16736
16746
16748
16756
16783
16784
16785
16786
16804
16808
16822
16823
16826
16829
16831
16835
16836
16841
16844
16846
16847
16848
16849
16852
16859
16861
16866
16874
16879
16882
16895
16949
16950
16966
16969
17040
17051
17102
17118
17128
17166
17196
17202
17205
17211
17219
17221
17224
17227
17228
17250
17256
17267
17268
17272
17274
17277
17323
17409
17498
17552
17569
17619
17620
17626
17646
17653
17661
17664
17683
17685
17686
17694
17706
17716
17720
17724
17729
17855
17865
17896
17908
17909
17911
17913
17925
17930
17931
17932
17941
17968
17976
17981
17982
17984
17986
17990
18000
18015
18016
18019
18020
18021
18023
18029
18030
18035
18056
18064
18067
18102
18110
18111
18115
18116
18167
18182
18244
18246
18247
18248
18260
18261
18265
18266
18267
18274
18301
18306
18311
18312
18315
18323
18325
18328
18333
18334
18335
18359
18378
18381
18403
18412
18417
18427
18432
18443
18445
18454
18457
18460
18462
18472
18477
18479
18490
18492
18494
18496
18497
18512
18513
18514
18515
18524
18535
18540
18564
18595
18596
18622
18631
18658
18720
18744
18761
18765
18780
18834
18837
18844
18848
18858
18860
18862
18865
18866
18872
18877
18878
18883
18894
18902
18904
18921
18925
18933
18934
18939
18940
18943
18970
18972
18975
18989
18993
19002
19011
19015
19029
19038
19043
19046
19053
19055
19057
19075
19079
19082
19102
19105
19107
19109
19110
19111
19112
19117
19121
19122
19125
19126
19127
19129
19130
19132
19178
19180
19184
19189
19190
19203
19249
19296
19297
19308
19309
19311
19314
19317
19325
19327
19349
19353
19354
19360
19361
19363
19367
19394
19395
19397
19398
19399
19403
19404
19406
19416
19418
19422
19429
19433
19439
19452
19496
19497
19501
19504
19507
19532
19544
19546
19548
19550
19556
19558
19563
19566
19569
19574
19580
19587
19588
19590
19596
19598
19599
19603
19606
19608
19610
19611
19624
19628
19660
19667
19690
19691
19698
19699
19708
19713
19716
19727
19733
19851
19852
19855
19856
19858
19869
19870
19890
19897
19901
19902
19907
19908
19913
19921
19924
19928
19960
19979
19980
19981
19982
20009
20027
20028
20033
20034
20036
20037
20042
20066
20068
20074
20075
20084
20090
20096
20105
20183
20189
20210
20223
20241
20244
20246
20336
20367
20484
20508
20519
20523
20564
20566
20573
20670
20724
20725
20729
20730
20733
20736
20749
20753
20757
20763
20773
20776
20779
20787
20801
20818
20819
20838
20840
20841
20847
20849
20917
20925
20926
21100
21180
21273
21275
21434
21484
21487
21492
21584
21587
21588
21680
21758
21797
21803
21826
21832
21838
21843
21892
21923
21931
21953
21954
21959
22001
22039
22159
22168
22177
22205
22214
22219
22225
22245
22260
22268
22287
22311
22386
22398
22399
22585
22601
22604
22608
22610
22611
22612
22613
22633
22642
22667
22697
22698
22709
22714
22716
22721
22722
22723
22731
22737
22748
22749
22770
22789
22800
22820
22827
22844
22855
22856
22861
22884
22886
22910
22911
22973
23038
23048
23078
23322
23327
23330
23337
23338
23341
23353
23354
23355
23359
23362
23364
23366
23367
23373
23388
23434
23441
23451
23457
23465
23473
23488
23500
23502
23538
23546
23556
23564
23570
23577
23605
23613
23615
23618
23620
23623
23628
23631
23632
23639
23648
23649
23656
23677
23687
23691
23703
23705
23707
23708
23715
23742
23765
23781
23789
23812
23813
23824
23834
23850
23882
23897
23907
23920
23927
23938
23940
23945
23956
23965
23982
23983
23988
23990
23991
23992
23993
23994
23995
23996
23997
24002
24003
24017
24019
24032
24034
24036
24038
24042
24051
24055
24059
24060
24063
24066
24074
24075
24125
24142
24148
24154
24155
24166
24183
24184
24192
24194
24210
24215
24225
24227
24228
24302
24305
24334
24505
24508
24520
24538
24739
24758
24805
24806
24808
24809
24813
24900
25257
25263
25277
25281
25282
25289
25312
25344
25350
25366
25372
25379
25383
25395
25402
25403
25418
25419
25497
25643
25900
25951
25956
26114
26116
26143
26178
26189
26305
26319
26335
26354
26374
26375
26389
26393
26395
26398
26400
26402
26498
26504
26529
26535
26537
26558
26560
26568
26569
26573
26603
26628
26629
26631
26632
26634
26636
26653
26713
26742
26759
26797
26873
26895
26898
26913
26916
26941
26942
26957
26965
26974
27058
27070
27175
27215
27218
27221
27246
27256
27270
27276
27279
27593
27606
27706
27715
27718
27727
27804
27833
27835
27888
27911
27944
27959
28044
28047
28165
28173
28181
28182
28184
28185
28191
28192
28193
28196
28197
28205
28229
28230
28232
28233
28234
28235
28239
28242
28244
28247
28249
28257
28264
28286
28321
28322
28323
28329
28342
28367
28374
28377
28381
28384
28393
28395
28401
28409
28421
28434
28435
28438
28451
28452
28455
28456
28458
28463
28468
28476
28477
28479
28484
28485
28491
28502
28503
28505
28506
28507
28510
28512
28532
28533
28539
28542
28547
28555
28560
28565
28571
28582
28586
28595
28599
28610
28616
28618
28620
28626
28627
28639
28640
28644
28647
28648
28649
28651
28652
28655
28656
28657
28659
28663
28666
28667
28688
28690
28695
28704
28716
28746
28763
28774
28787
28815
28827
28839
28840
28841
28843
28844
28847
28848
28858
28859
28865
28871
28879
28885
28888
28889
28891
28893
28895
28899
28900
28951
28956
28962
28980
29009
29012
29013
29026
29028
29047
29079
29085
29096
29098
29105
29110
29112
29119
29122
29125
29126
29127
29130
29133
29139
29143
29161
29166
29170
29179
29184
29185
29186
29188
29189
29194
29212
29216
29217
29221
29237
29241
29251
29274
29304
29306
29309
29319
29321
29363
29370
29371
29374
29376
29381
29392
29403
29411
29439
29455
29489
29506
29509
29513
29538
29540
29557
29558
29581
29585
29588
29594
29598
29607
29611
29619
29633
29640
29641
29644
29671
29675
29723
29724
29726
29727
29730
29734
29748
29762
29763
29784
29791
29798
29826
29830
29832
29854
29863
29875
29876
29877
29878
29879
29880
29883
29888
29926
29938
29943
29945
29953
29955
29960
29962
29963
29973
30012
30015
30020
30021
30023
30027
30029
30033
30037
30042
30046
30047
30051
30060
30063
30066
30069
30071
30081
30090
30101
30104
30124
30136
30140
30156
30170
30172
30174
30204
30207
30211
30212
30214
30215
30217
30223
30227
30229
30230
30232
30238
30241
30242
30244
30246
30247
30248
30256
30263
30271
30275
30291
30296
30298
30299
30301
30302
30304
30308
30309
30314
30316
30323
30330
30331
30332
30334
30335
30340
30372
30376
30377
30379
30380
30384
30389
30390
30429
30462
30469
30482
30487
30495
30507
30508
30523
30542
30552
30563
30569
30573
30589
30606
30627
30630
30709
30710
30749
30750
30834
30841
30844
30848
30852
30873
30885
30923
30989
30995
31026
31039
31041
31043
31082
31084
31091
31092
31121
31124
31130
31138
31151
31165
31176
31183
31339
31363
31364
31366
31369
31377
31439
31450
31467
31497
31501
31542
31548
31565
31569
31579
31582
31588
31591
31592
31594
31608
31611
31621
31627
31689
31696
31707
31709
31710
31713
31716
31717
31719
31735
31740
31741
31747
31752
31758
31759
31763
31766
31770
31772
31778
31782
31792
31796
31812
31831
31841
31854
31879
31904
31918
31921
31922
31923
31928
31981
31987
31998
32034
32572
32573
32595
32597
33304
33475
33489
33493
33496
33497
33708
33712
33865
33894
34201
34219
34222
34446
34472
34494
34496
34518
34645
34701
34702
34775
35439
35440
35448
35457
35476
35488
35496
35500
35501
35507
35516
35517
35519
35535
35539
35542
35546
35550
35552
35570
35588
35600
35601
35620
35633
35635
35643
35646
35663
35673
35676
35679
35739
35746
35786
35797
35818
35819
35820
35825
35830
35879
35911
35919
35922
35948
35950
35955
36046
36061
36499
37426
37567
37705
37753
37755
37785
37797
37814
37827
37830
37897
37910
38049
38204
38206
38253
38434
38435
38438
38483
38495
38559
38560
38561
38566
38571
38577
38585
38676
38697
38745
38749
38750
38757
38763
38783
38787
38794
38935
38943
38947
38960
38962
38964
38965
38979
39000
39008
39021
39430
39445
39452
39455
39457
39458
39471
39806
39825
39947
39948
40087
40089
46568
46715
46995
46996
47156
47198
47216
47217
[ 423 ]
3223
3224
3234
3244
3268
3269
3271
3276
3277
3286
3287
3293
3299
3304
3309
3312
3313
3314
3317
3318
3323
3330
3335
3339
3341
3343
3350
3360
3367
3368
3370
3372
3374
3375
3376
3378
3385
3391
3406
3408
3409
3410
3421
3422
3424
3425
3427
3432
3433
3440
3443
3444
3445
3446
3455
3458
3461
3463
3470
3491
3495
3500
3508
3509
3526
3527
3528
3531
3532
3541
3543
3546
3549
3551
3555
3557
3560
3562
3563
3565
3568
3571
3575
3576
3578
3580
3582
3583
3585
3586
3588
3589
3590
3592
3594
3595
3596
3602
3605
3611
3612
3618
3619
3621
3622
3623
3624
3628
3634
3638
3640
3642
3644
3645
3648
3652
3653
3661
3663
3666
3673
3674
3675
3678
3679
3680
3684
3686
3688
3693
3695
3696
3697
3698
3699
3700
3701
3702
3704
3705
3706
3710
3711
3712
3715
3721
3737
3738
3750
3751
3761
3767
3768
3769
3770
3777
3800
3801
3804
3811
3812
3814
3815
3817
3818
3820
3824
3832
3848
3849
3854
3858
3863
3865
3866
3867
3873
3874
3876
3878
3895
3903
3911
3917
3918
3920
3921
3926
3929
3935
3938
3939
3940
3941
3942
3943
3944
3945
3957
3958
3960
3961
3966
3972
3992
3996
3998
4001
4002
4003
4011
4014
4016
4019
4135
4292
4441
4476
4482
4491
4492
4501
4505
4534
4540
4541
4569
4571
4572
4573
4575
4578
4579
4587
4590
4592
4610
4625
4645
4647
4649
4650
4653
4654
4655
4675
4679
4691
4711
4712
4714
4844
4845
4852
4854
4912
4913
4914
4917
4932
4940
4959
5050
5075
5079
5082
5108
5111
5112
5121
5144
5147
5149
5150
5151
5158
5161
5168
5216
5217
5218
5224
5238
5240
5249
5253
5258
5265
5274
5284
5289
5290
5294
5295
5296
5300
5303
5322
5323
5325
5327
5357
5976
5977
5979
5982
6012
6022
6024
6025
6026
6032
6035
6036
6039
6040
6041
6042
6044
6069
6081
6322
6323
6325
6346
6353
6355
6411
6417
6418
6423
6428
6520
6521
6523
6525
6526
6527
6528
6531
6533
6534
6535
6539
6542
6545
6549
6557
6562
6575
6598
6622
6623
6627
6632
6635
6636
6638
6644
6647
6650
6661
6662
6684
6705
6743
6751
6784
6788
6794
6803
6809
6819
6825
6841
6846
6847
6848
6849
6850
6854
6858
6861
6871
6892
6897
6899
6901
6908
6911
6914
6919
6921
6923
6936
6939
6945
6956
6960
6962
6969
6978
6994
7003
7008
7011
7012
7018
7020
7045
7052
7054
7059
7062
7069
7074
7085
7100
7108
7112
7162
7172
7176
7189
7194
7205
7242
7255
7265
7293
7321
7345
7385
7387
7391
7408
7435
7450
7456
7462
7465
7474
7489
7493
7502
7514
7515
7517
7523
7526
7527
7530
7543
7551
7552
7579
7593
7596
7605
7613
7639
7664
7665
7669
7694
7705
7718
7751
7793
7820
7821
7826
7834
7839
7840
7842
7851
7854
7858
7869
7870
7871
7872
7877
7878
7882
7885
7888
7891
7895
7908
7914
7916
7917
7918
7921
7923
7925
7926
7964
7965
7966
7973
7993
7994
7998
8001
8010
8014
8015
8020
8031
8036
8046
8068
8076
8077
8085
8087
8093
8103
8104
8109
8120
8132
8151
8153
8154
8165
8170
8184
8186
8187
8189
8199
8203
8216
8222
8239
8250
8260
8261
8262
8273
8274
8277
8292
8326
8356
8357
8375
8379
8450
8458
8474
8478
8482
8497
8512
8527
8537
8548
8592
8608
8610
8612
8621
8643
8644
8651
8655
8983
8984
8986
8998
9000
9008
9009
9010
9011
9012
9019
9023
9024
9026
9037
9038
9044
9057
9058
9059
9063
9077
9080
9083
9088
9090
9093
9095
9100
9102
9105
9106
9111
9112
9118
9119
9128
9129
9132
9135
9136
9137
9142
9143
9145
9146
9156
9158
9167
9170
9172
9218
9219
9221
9226
9227
9236
9243
9247
9251
9259
9261
9276
9300
9329
9332
9334
9344
9346
9349
9350
9365
9373
9379
9386
9387
9388
9398
9403
9417
9478
9536
9553
9559
9563
9565
9567
9568
9579
9588
9591
9592
9596
9605
9611
9615
9616
9617
9621
9622
9624
9625
9627
9635
9637
9641
9655
9661
9662
9663
9665
9667
9670
9708
9711
9712
9727
9729
9740
9744
9746
9766
9782
9791
9813
9825
9827
9832
9833
9846
9849
9856
9857
9868
9873
9879
9882
9886
9894
9897
9921
9929
9932
9937
9938
9942
9943
9951
9952
9975
9985
9992
10027
10265
10342
10356
10357
10360
10368
10399
10400
10445
10458
10460
10461
10502
10505
10510
10513
10522
10525
10534
10535
10567
10579
10581
10582
10586
10596
10601
10611
10675
10721
10725
11085
11181
11212
11283
11289
11340
11359
11361
11362
12613
12616
12617
12630
12632
12635
12715
12723
12724
12730
12733
12735
12737
12739
12740
12741
12742
12743
12749
12752
12753
12760
12761
12770
12772
12774
12790
12820
12821
12823
12826
12833
12834
12840
12846
12861
12870
12874
12961
12963
13025
13030
13046
13047
13050
13051
13054
13055
13057
13059
13060
13066
13069
13078
13081
13082
13083
13084
13088
13110
13114
13120
13125
13130
13132
13133
13135
13138
13141
13144
13146
13148
13149
13159
13162
13170
13176
13181
13192
13193
13208
13213
13223
13227
13237
13238
13241
13246
13261
13262
13264
13265
13273
13279
13284
13291
13330
13333
13337
13349
13352
13369
13390
13393
13396
13409
13413
13415
13435
13436
13459
13460
13472
13473
13474
13478
13480
13481
13482
13483
13486
13490
13493
13500
13501
13505
13507
13509
13512
13513
13519
13523
13524
13527
13528
13529
13530
13531
13533
13537
13538
13543
13544
13545
13547
13550
13552
13554
13559
13562
13567
13582
13599
13603
13604
13612
13620
13621
13625
13630
13632
13639
13649
13655
13656
13661
13684
13688
13689
13690
13691
13695
13696
13699
13700
13701
13706
13710
13711
13712
13717
13721
13723
13724
13730
13731
13732
13735
13738
13741
13742
13747
13748
13750
13754
13801
13805
13807
13809
13810
13815
13816
13817
13819
13821
13824
13825
13827
13830
13831
13833
13834
13835
13837
13839
13842
13844
13847
13849
13875
13884
13885
13891
13893
13899
13906
13913
13914
13918
13925
13926
13929
13934
13941
13945
13947
13952
13955
13956
13962
13966
13979
13993
13995
14001
14003
14005
14016
14054
14057
14072
14097
14099
14100
14129
14134
14135
14142
14150
14174
14380
14389
14397
14399
14404
14409
14424
14432
14435
14456
14465
14466
14472
14476
14477
14479
14480
14492
14496
14497
14517
14521
14527
14532
14533
14536
14537
14581
14582
14583
14591
14592
14597
14601
14606
14607
14613
14626
14627
14639
14657
14685
14689
14690
14695
14698
14717
14718
14719
14721
14723
14730
14733
14734
14735
14736
14747
14748
14752
14753
14759
14760
14761
14769
14853
14854
14992
15026
15046
15047
15051
15052
15058
15166
15168
15176
15184
15186
15187
15198
15200
15215
15222
15228
15229
15235
15361
15364
15366
15378
15381
15382
15424
15439
15440
15442
15449
15477
15498
15509
15510
15511
15549
15550
15561
15562
15570
15572
15577
15581
15629
15632
15636
15657
15659
15661
15663
15666
15669
15671
15672
15675
15679
15683
15686
15695
15712
15739
15750
15751
15759
15770
15776
15778
15779
15789
15796
15797
15804
15817
15818
15826
15828
15842
15871
15874
15895
16144
16151
16152
16159
16184
16207
16210
16214
16220
16222
16232
16233
16234
16237
16239
16242
16252
16260
16261
16272
16277
16285
16320
16322
16324
16325
16330
16331
16356
16357
16361
16363
16364
16365
16366
16367
16368
16369
16371
16372
16375
16378
16380
16385
16401
16404
16405
16406
16407
16410
16412
16415
16418
16425
16426
16433
16438
16439
16440
16447
16454
16455
16456
16459
16501
16512
16513
16515
16534
16559
16575
16579
16605
16608
16673
16693
16716
16729
16733
16737
16759
16768
16803
16834
16839
16840
16889
17070
17105
17106
17107
17112
17116
17120
17121
17125
17127
17131
17135
17144
17146
17148
17153
17162
17175
17180
17181
17182
17214
17216
17217
17220
17226
17232
17237
17241
17253
17259
17262
17263
17264
17265
17417
17426
17441
17446
17448
17455
17458
17460
17461
17482
17483
17484
17493
17509
17513
17516
17519
17522
17537
17549
17551
17554
17562
17696
17699
17708
17712
17713
17715
17719
17728
17730
17731
17732
17749
17750
17753
17772
17776
17777
17791
17794
17795
17802
17804
17805
17806
17820
17821
17828
17841
17859
17864
17916
17918
17920
17929
17933
17946
17952
17960
17966
17970
17992
17995
17998
17999
18002
18007
18008
18013
18014
18017
18018
18024
18031
18032
18033
18034
18042
18048
18060
18061
18062
18112
18119
18120
18122
18144
18148
18255
18262
18264
18275
18276
18278
18279
18280
18285
18286
18303
18304
18305
18307
18308
18309
18310
18316
18317
18326
18327
18330
18336
18340
18342
18343
18347
18348
18356
18362
18363
18364
18374
18382
18383
18384
18386
18387
18393
18394
18395
18401
18402
18404
18406
18407
18408
18411
18413
18414
18420
18422
18424
18426
18446
18450
18452
18473
18480
18483
18484
18485
18487
18489
18499
18501
18507
18522
18533
18537
18539
18543
18545
18551
18552
18553
18555
18557
18558
18559
18560
18561
18566
18567
18573
18593
18604
18616
18620
18621
18635
18646
18647
18653
18654
18655
18662
18664
18665
18667
18681
18691
18695
18696
18698
18704
18706
18707
18709
18712
18717
18718
18721
18722
18724
18728
18729
18733
18741
18742
18743
18745
18746
18747
18748
18750
18751
18753
18757
18802
18843
18847
18852
18856
18857
18861
18869
18880
18882
18936
18998
19016
19023
19030
19032
19033
19034
19048
19050
19063
19071
19072
19074
19076
19091
19092
19095
19101
19104
19108
19116
19120
19123
19131
19181
19188
19315
19316
19318
19322
19328
19329
19330
19333
19342
19357
19370
19372
19373
19374
19376
19378
19380
19387
19393
19402
19413
19431
19434
19435
19436
19440
19444
19457
19459
19584
19585
19618
19638
19640
19644
19651
19657
19658
19661
19663
19674
19677
19678
19679
19681
19682
19683
19684
19688
19692
19711
19712
19715
19723
19725
19746
19764
19771
19781
19784
19786
19789
19792
19793
19794
19795
19803
19804
19810
19814
19817
19822
19830
19832
19834
19839
19842
19847
19854
19857
19898
20031
20038
20043
20047
20048
20049
20053
20056
20059
20062
20064
20065
20086
20087
20088
20092
20095
20101
20103
20184
20188
20195
20209
20212
20224
20227
20230
20243
20251
20258
20267
20270
20274
20291
20297
20310
20315
20732
20752
20755
20756
20758
20759
20761
20764
20767
20785
20788
20792
20794
20799
20806
20812
20837
20906
20924
20942
20944
20945
20946
20948
20963
20964
20971
20974
20976
20994
21485
21486
21493
21494
21510
21822
21825
21830
21850
21856
21881
21900
21907
21940
21952
22035
22068
22069
22113
22203
22244
22246
22252
22276
22279
22351
22354
22388
22392
22425
22600
22616
22618
22625
22629
22632
22638
22641
22643
22645
22651
22652
22701
22702
22710
22724
22727
22736
22753
22754
22773
22779
22798
22814
22819
22824
22829
22830
22835
22840
22841
22843
22845
22852
22858
22864
22880
22888
22891
22896
22897
22912
22913
22914
22969
22972
22989
22990
22994
23003
23026
23037
23041
23046
23323
23358
23360
23363
23459
23460
23463
23471
23477
23563
23574
23594
23612
23621
23627
23636
23664
23667
23676
23681
23697
23719
23750
23757
23758
23766
23767
23769
23770
23772
23773
23774
23775
23776
23822
23857
23860
23865
23895
23896
23898
23906
23947
23949
23952
23954
23955
23964
23967
23970
23972
23973
23974
23975
23977
23978
23979
23980
23984
23987
23989
23998
24004
24006
24008
24012
24013
24015
24016
24030
24041
24043
24045
24058
24061
24062
24070
24079
24147
24149
24185
24186
24187
24188
24212
24214
24222
24232
24233
24234
24236
24240
24241
24253
24256
24257
24258
24259
24266
24267
24269
24285
24287
24291
24293
24300
24308
24338
24349
24358
24359
24374
24375
24377
24378
24381
24382
24383
24392
24475
24478
24480
24483
24492
24494
24495
24513
24559
24561
24649
24660
24748
24750
24779
24780
24781
24810
24811
24814
24876
24898
24902
24908
25121
25124
25151
25154
25260
25270
25273
25279
25280
25283
25286
25287
25288
25294
25295
25301
25309
25310
25314
25315
25316
25317
25330
25338
25340
25343
25345
25348
25349
25351
25352
25354
25361
25365
25370
25373
25375
25380
25381
25385
25400
25406
25408
25412
25414
25416
25417
25431
25434
25459
25462
25468
25472
25475
25534
25536
25539
25542
25544
25545
25550
25553
25554
25556
25557
25559
25562
25565
25574
25585
25588
25591
25594
25610
25618
25625
25626
25634
25638
25641
25642
25644
25662
25682
25690
25699
25830
25904
25911
25913
25929
25930
25934
25941
25946
25952
25955
25957
25964
25988
26015
26027
26033
26050
26102
26105
26106
26108
26117
26122
26136
26137
26147
26151
26160
26161
26163
26164
26167
26177
26188
26190
26194
26196
26200
26247
26251
26256
26262
26269
26270
26271
26272
26277
26280
26281
26291
26292
26307
26310
26312
26321
26324
26337
26338
26348
26353
26371
26376
26377
26380
26405
26429
26438
26441
26450
26452
26491
26506
26508
26512
26519
26524
26525
26532
26533
26538
26539
26550
26552
26559
26570
26574
26575
26585
26596
26610
26611
26612
26613
26616
26635
26639
26648
26651
26657
26658
26659
26660
26663
26666
26672
26673
26680
26686
26693
26694
26697
26702
26705
26706
26712
26717
26719
26729
26730
26731
26732
26733
26745
26750
26754
26760
26781
26790
26791
26795
26799
26800
26804
26805
26807
26814
26815
26819
26821
26827
26828
26829
26831
26835
26843
26860
26862
26865
26875
26878
26879
26881
26882
26884
26886
26891
26896
26897
26899
26903
26904
26906
26907
26911
26914
26915
26917
26929
26933
26934
26936
26937
26960
26978
26983
26998
26999
27006
27024
27035
27042
27055
27086
27109
27124
27126
27139
27143
27145
27148
27159
27178
27179
27186
27193
27194
27196
27207
27208
27211
27213
27217
27223
27224
27227
27231
27241
27242
27243
27244
27248
27249
27258
27267
27271
27273
27274
27275
27277
27280
27285
27286
27288
27289
27290
27292
27293
27295
27297
27298
27299
27302
27305
27306
27332
27363
27381
27383
27403
27416
27418
27419
27422
27435
27463
27482
27485
27507
27515
27518
27523
27528
27531
27532
27533
27561
27568
27579
27580
27585
27588
27590
27595
27597
27599
27601
27607
27608
27615
27623
27634
27636
27643
27648
27652
27663
27665
27670
27674
27677
27684
27685
27689
27698
27709
27722
27724
27725
27726
27728
27729
27731
27733
27734
27735
27739
27741
27743
27744
27745
27757
27766
27767
27777
27778
27791
27796
27797
27827
27830
27842
27844
27848
27849
27850
27867
27871
27872
27874
27884
27912
27913
27920
27922
27923
27927
27928
27929
27933
27953
27955
27961
27969
27974
27981
27982
28019
28025
28029
28038
28043
28045
28048
28059
28063
28096
28101
28104
28109
28111
28112
28119
28121
28124
28125
28128
28133
28140
28141
28142
28143
28146
28148
28150
28154
28156
28161
28163
28167
28170
28172
28174
28175
28176
28177
28179
28183
28189
28190
28208
28209
28215
28216
28217
28219
28222
28223
28225
28237
28255
28260
28261
28262
28265
28271
28273
28275
28277
28278
28284
28288
28289
28292
28296
28298
28299
28310
28326
28330
28332
28334
28335
28336
28339
28343
28348
28351
28352
28353
28358
28362
28370
28379
28380
28386
28388
28394
28396
28400
28403
28406
28407
28410
28415
28418
28420
28422
28423
28426
28429
28430
28439
28447
28465
28471
28480
28486
28504
28526
28538
28540
28544
28549
28552
28553
28554
28557
28559
28588
28624
28625
28675
28680
28682
28683
28687
28697
28698
28701
28703
28818
28826
28829
28833
28834
28835
28836
28838
28842
28845
28852
28854
28860
28861
28881
28882
28896
28904
28979
29036
29043
29048
29089
29090
29099
29109
29148
29149
29156
29157
29168
29169
29172
29177
29203
29204
29209
29232
29235
29238
29258
29296
29302
29323
29326
29329
29332
29346
29354
29365
29369
29391
29407
29410
29417
29427
29445
29458
29477
29491
29502
29504
29514
29516
29520
29531
29562
29579
29591
29592
29662
29663
29678
29692
29711
29713
29754
29787
29795
29811
29828
29856
29864
29874
29886
29909
29916
29919
29923
29961
29978
30013
30014
30017
30018
30053
30055
30056
30057
30058
30062
30068
30078
30096
30099
30117
30119
30123
30163
30168
30202
30203
30213
30219
30220
30221
30222
30237
30240
30245
30265
30268
30276
30283
30287
30295
30307
30317
30320
30322
30324
30325
30342
30355
30361
30373
30374
30381
30385
30461
30514
30516
30522
30532
30551
30553
30555
30560
30561
30585
30603
30608
30613
30614
30618
30619
30645
30655
30660
31100
31115
31117
31125
31127
31139
31141
31180
31347
31349
31378
31386
31396
31401
31415
31434
31443
31447
31452
31505
31506
31510
31531
31552
31587
31623
31629
31631
31640
31661
31663
31695
31730
31731
31734
31750
31755
31777
31779
31780
31781
31791
31795
31797
31798
31800
31803
31805
31811
31814
31820
31827
31849
31863
31872
31888
31905
31909
31912
31914
31920
31929
31946
31953
31958
31960
31967
31970
31972
31973
31974
31983
31985
32624
33070
33215
33217
33231
33351
33429
33608
33615
33624
33630
33649
33653
33654
33660
33675
33693
33696
33699
33702
33706
34380
34407
34445
34455
34456
34464
34469
34477
34483
34484
34491
34498
34510
34515
34516
34519
34521
34526
34532
34540
34541
34547
34550
34558
34561
34574
34588
34590
34603
34624
34627
34631
34632
34633
34637
34639
34643
34646
34651
34652
34653
34655
34656
34668
34671
34672
34676
34686
34687
34688
34689
34690
34691
34697
34700
34711
34712
34714
34723
34724
34736
34753
34758
34760
34762
34771
34778
34782
35453
35461
35462
35465
35466
35467
35472
35477
35479
35480
35481
35485
35487
35491
35492
35495
35497
35498
35502
35505
35506
35508
35510
35511
35512
35513
35514
35515
35518
35520
35521
35522
35523
35529
35541
35549
35554
35556
35558
35561
35562
35566
35568
35569
35573
35576
35580
35581
35590
35591
35594
35604
35615
35617
35669
35670
35681
35684
35705
35709
35741
35758
35789
35810
35824
35829
35834
35936
36419
36421
37450
37787
38235
38247
38249
38250
38550
38562
38564
38565
38590
38603
38616
38624
38627
38644
38646
38648
38652
38713
38714
38715
38716
38762
38769
38770
38800
38802
38805
38809
38819
38822
38830
38840
38868
38873
38909
38912
38930
38940
38941
38950
38955
38963
38966
38969
38977
38980
38984
38985
38986
38987
38989
38992
38997
38998
39001
39003
39005
39012
39014
39086
39440
39444
39448
39449
39472
39514
39515
39516
39517
39524
39565
39628
39789
39823
39828
39980
39983
39984
40009
40010
40011
40015
40018
40019
40022
40023
40043
40044
40068
40069
40072
40079
40081
40082
40084
40090
40091
40094
40101
40104
40106
45054
45201
46983
47229
47563
48974
49054
49107
[ 424 ]
3284
3288
3300
3311
3345
3359
3361
3371
3379
3398
3404
3434
3442
3447
3451
3510
3513
3533
3536
3545
3550
3552
3558
3559
3564
3570
3573
3574
3577
3587
3597
3598
3610
3613
3614
3616
3625
3626
3632
3639
3650
3656
3657
3658
3662
3668
3669
3671
3676
3677
3681
3713
3726
3729
3734
3735
3736
3739
3740
3742
3745
3746
3752
3756
3759
3760
3762
3764
3773
3775
3776
3778
3780
3783
3784
3790
3791
3792
3793
3802
3807
3808
3809
3810
3813
3816
3819
3826
3829
3859
3864
3868
3869
3870
3872
3877
3883
3884
3887
3898
3904
3909
3923
3927
3930
3933
3937
3971
3993
4007
4454
4531
4850
4911
4916
4935
4936
5275
5970
5974
5988
5994
6002
6007
6014
6017
6326
6548
6550
6551
6565
6573
6583
6591
6596
6601
6615
6619
6621
6637
6674
6727
6749
6754
6820
6821
6857
6863
6874
6875
6877
6880
6883
6886
6894
6907
6931
6949
6961
6966
6967
6981
6982
6986
7005
7032
7033
7034
7067
7107
7122
7130
7150
7180
7187
7257
7278
7284
7383
7396
7440
7442
7445
7446
7448
7457
7459
7461
7472
7473
7475
7480
7499
7509
7510
7524
7538
7574
7614
7635
7656
7657
7674
7681
7687
7696
7699
7709
7721
7722
7729
7758
7760
7761
7763
7791
7792
7811
7841
7859
7864
7874
7876
7884
7889
7890
7919
7927
7931
7936
7937
7941
7944
7948
7951
7960
8008
8009
8017
8018
8030
8039
8041
8049
8052
8054
8055
8061
8070
8075
8078
8080
8095
8096
8168
8220
8231
8253
8360
8361
8496
8502
8525
8528
8552
8571
9005
9025
9028
9031
9043
9060
9062
9069
9072
9082
9084
9086
9098
9123
9124
9127
9130
9144
9147
9155
9223
9249
9287
9564
9569
9574
9614
9623
9671
9747
9748
9824
9828
9829
9876
9923
9936
9945
9948
10361
10377
10395
10412
10419
10440
10447
10449
10452
10464
10511
10583
10590
10593
10594
10602
10676
11018
11019
11368
12755
12758
12829
12842
12849
12862
12868
12869
12962
13028
13036
13040
13042
13068
13070
13080
13116
13119
13122
13128
13129
13139
13143
13151
13153
13154
13157
13225
13232
13233
13240
13252
13268
13280
13297
13300
13315
13322
13331
13332
13334
13336
13366
13382
13391
13401
13410
13475
13477
13479
13484
13488
13498
13499
13532
13540
13541
13561
13568
13586
13591
13594
13595
13597
13601
13602
13605
13606
13614
13615
13617
13619
13622
13623
13626
13627
13636
13641
13643
13645
13647
13652
13654
13663
13666
13667
13669
13673
13677
13707
13708
13709
13804
13806
13832
13930
13936
13937
13938
13939
13949
13950
13997
14004
14006
14058
14060
14062
14063
14066
14132
14147
14376
14390
14392
14441
14443
14475
14485
14682
14684
14701
14727
14763
15035
15037
15040
15041
15162
15185
15438
15566
15567
15571
15673
15766
15769
15780
15781
15782
15790
15815
15819
15821
15822
15890
15891
15892
15894
15898
16162
16185
16186
16187
16213
16218
16219
16225
16226
16238
16243
16263
16266
16270
16273
16274
16276
16328
16337
16339
16340
16344
16345
16347
16350
16353
16354
16355
16408
16409
16411
16545
16875
17126
17133
17145
17156
17168
17234
17245
17266
17442
17491
17560
17714
17740
17815
17817
17819
17852
17871
17919
17964
18005
18006
18146
18252
18253
18254
18263
18282
18291
18293
18299
18338
18349
18351
18355
18360
18368
18372
18375
18377
18379
18390
18541
18576
18577
18578
18587
18588
18589
18591
18600
18602
18606
18617
18619
18650
18652
18672
18673
18684
18700
18726
18740
19021
19087
19175
19179
19331
19362
19381
19425
19445
19446
19635
19652
19662
19676
19687
19718
19722
19741
19743
19744
19745
19748
19754
19763
19776
19785
19788
19796
19799
19800
19801
19802
19809
19811
19812
19813
19821
19823
19826
19835
19840
19844
19894
20039
20044
20058
20061
20093
20193
20269
20278
20279
20281
20282
20284
20285
20286
20288
20300
20305
20316
20783
20795
20823
20831
20834
20882
20886
20891
20896
20934
20949
20951
20970
20982
20988
20991
20995
21503
21880
21884
21888
21937
21945
22206
22347
22352
22368
22369
22725
22786
22825
22869
22976
22983
22988
23006
23008
23717
23754
23759
23861
23950
24011
24040
24213
24217
24221
24242
24245
24246
24249
24252
24275
24277
24278
24281
24282
24289
24311
24312
24321
24326
24337
24339
24341
24360
24361
24365
24366
24368
24369
24376
24379
24393
24395
24400
24401
24402
24405
24435
24439
24450
24455
24459
24473
24474
24479
24481
24490
24491
24500
24511
24568
24572
24573
24584
24592
24596
24602
24603
24604
24618
24619
24623
24643
24644
24647
24651
24657
24658
24659
24668
24669
24670
24671
24674
24675
24676
24711
24712
24722
24723
24725
24743
24761
24763
24766
24772
24774
24776
24793
24794
24802
24815
24875
24887
24893
24894
24895
24905
24906
24907
24998
25000
25001
25006
25011
25033
25051
25058
25060
25062
25071
25077
25083
25084
25087
25093
25094
25097
25098
25103
25116
25117
25122
25126
25139
25141
25143
25171
25189
25195
25198
25201
25204
25219
25240
25254
25264
25272
25275
25284
25291
25292
25296
25297
25299
25300
25302
25303
25304
25389
25485
25500
25511
25512
25541
25548
25552
25586
25598
25619
25622
25629
25633
25635
25648
25661
25905
25912
25914
25915
25916
25917
25921
25923
25926
25940
25943
25944
25959
25960
25961
25966
25971
25989
25990
25991
25993
25995
25998
25999
26008
26016
26034
26040
26041
26043
26045
26062
26064
26068
26079
26087
26103
26119
26120
26125
26127
26152
26169
26171
26172
26176
26186
26238
26240
26253
26255
26257
26258
26259
26261
26263
26267
26268
26278
26282
26289
26301
26304
26308
26316
26331
26339
26349
26351
26352
26367
26381
26412
26418
26431
26435
26464
26499
26502
26509
26521
26547
26640
26647
26662
26671
26690
26699
26708
26776
26794
26798
26825
26833
26837
26838
26839
26840
26844
26846
26847
26852
26855
26856
26864
26867
26871
26874
26885
26901
26923
26935
27002
27013
27021
27022
27025
27026
27043
27071
27072
27073
27075
27076
27080
27096
27101
27104
27106
27108
27111
27187
27188
27190
27192
27200
27226
27229
27254
27261
27339
27368
27376
27378
27390
27396
27398
27406
27408
27412
27413
27421
27456
27461
27477
27483
27491
27493
27505
27511
27512
27513
27519
27521
27522
27524
27525
27534
27538
27539
27540
27542
27543
27546
27547
27572
27598
27650
27653
27691
27713
27732
27765
27866
27876
27887
27892
27958
27983
28010
28015
28016
28017
28018
28050
28061
28102
28110
28114
28123
28129
28131
28132
28135
28136
28152
28160
28224
28258
28259
28300
28302
28305
28306
28327
28337
28347
28411
28464
28498
28837
28853
28864
29124
29151
29295
29322
29335
29463
29492
29567
29679
29922
29927
29929
29932
30098
30102
30107
30277
30362
30363
30378
31175
31449
31634
31635
31794
31815
31876
31890
31902
31952
31964
31969
31979
33180
33278
33420
33627
33655
33667
33669
33671
33676
33686
34410
34432
34440
34442
34474
34493
34512
34513
34524
34531
34570
34572
34601
34617
34618
34657
34659
34679
34693
34694
34698
34744
34750
34755
34757
34774
35486
35548
35557
35560
35707
35817
35851
35944
38605
38792
38827
38846
38878
38933
38953
38973
38990
38993
38996
39025
39026
39084
39433
39436
39442
39466
39467
39470
39521
39556
39738
39950
39961
39963
39975
40013
43923
45214
45378
49106
49165
49168
[ 425 ]
3158
3627
3682
3722
3724
3731
3732
3733
3771
3772
3774
3779
3781
3788
3789
3794
3798
3822
3828
3853
6011
6879
7467
7728
7945
7957
8162
8363
8364
8468
8526
8988
9001
9003
9007
9224
9252
9254
9620
9628
9822
9834
10394
10429
10434
13044
13168
13272
13295
13298
13534
13608
13646
13650
13653
13674
13675
13676
13935
15039
15379
15785
16223
16254
16286
16336
16343
16348
16349
16351
17149
17800
18352
18353
18542
18603
18686
19025
19449
19621
19755
19757
19758
19843
20280
20889
21903
22198
23324
24290
24296
24309
24313
24323
24353
24372
24403
24412
24416
24417
24418
24431
24441
24453
24460
24466
24469
24482
24501
24570
24575
24577
24580
24581
24585
24586
24587
24594
24597
24598
24599
24601
24605
24608
24610
24613
24615
24616
24617
24630
24634
24636
24648
24652
24654
24655
24662
24672
24677
24680
24687
24692
24693
24697
24699
24734
24754
24762
24764
24773
24777
24799
24800
24801
24823
24824
24825
24826
24843
24847
24850
24856
24878
24879
24880
24884
24885
24886
24888
24890
24891
24896
24940
24941
24943
24947
24952
24953
24957
24965
24966
24980
24981
24982
24983
24995
25002
25003
25004
25007
25014
25017
25018
25021
25023
25030
25031
25039
25040
25052
25055
25057
25068
25069
25078
25085
25090
25092
25095
25096
25109
25113
25114
25115
25123
25125
25129
25132
25134
25135
25136
25146
25147
25148
25149
25150
25152
25155
25156
25158
25159
25160
25165
25166
25167
25175
25177
25178
25179
25180
25181
25182
25183
25185
25187
25192
25194
25197
25208
25212
25220
25223
25226
25239
25241
25242
25246
25255
25256
25258
25278
25376
25488
25910
25918
25922
25927
25928
25970
25992
25997
26003
26005
26007
26010
26036
26037
26039
26047
26049
26052
26053
26065
26070
26084
26086
26090
26092
26096
26097
26100
26104
26134
26139
26274
26275
26279
26284
26288
26297
26302
26311
26314
26315
26341
26343
26346
26347
26356
26688
26845
26850
27014
27185
27395
27397
28130
28282
28314
33668
33681
34422
34431
34438
38243
38859
38861
39081
39083
39088
39955
39956
40002
44208
45190
46488
47546
47567
47659
49108
[ 426 ]
2605
2629
2651
2658
2710
3748
9029
14464
15813
16335
24409
24420
24421
24424
24425
24426
24427
24428
24429
24432
24442
24443
24447
24452
24456
24463
24465
24579
24589
24609
24611
24631
24633
24635
24656
24682
24683
24688
24698
24706
24708
24717
24719
24728
24729
24733
24769
24770
24820
24821
24840
24852
24853
24859
24869
24921
24922
24927
24930
24937
24945
24946
24954
24955
24956
24958
24962
24963
24969
24977
24978
24987
24996
24997
25024
25025
25026
25034
25042
25043
25044
25045
25046
25048
25053
25054
25061
25072
25081
25088
25089
25100
25102
25104
25105
25110
25111
25112
25133
25157
25161
25162
25176
25184
25199
25200
25209
25216
25217
25218
25222
25228
25237
25238
25244
25245
25252
25388
25907
25908
26006
26076
26080
26094
26095
26098
26099
26290
39526
45320
45383
[ 427 ]
1077
2444
2480
2532
2534
2540
2541
2543
2550
2560
2565
2567
2572
2573
2582
2583
2586
2591
2592
2593
2595
2609
2610
2613
2633
2640
2641
2652
2654
2655
2656
24410
24422
24461
24690
24700
24703
24822
24833
24837
24864
24866
24913
24914
24920
24923
24924
24925
24928
24929
24933
24935
24936
24938
24960
24967
24972
24975
24985
24986
24990
25047
25049
25106
25108
25221
25225
25227
25229
25247
26075
[ 428 ]
2007
2021
2029
2065
2083
2085
2088
2089
2107
2108
2223
2224
2229
2230
2353
2420
2422
2431
2452
2453
2454
2458
2460
2464
2471
2479
2487
2495
2498
2505
2507
2535
2544
2547
2549
2551
2559
2574
2575
2577
2590
2594
2598
2612
2679
2704
2713
2716
2719
24829
24831
24861
24862
24863
24865
24911
24915
24916
24917
24918
24926
24934
24961
24971
24974
25232
25233
25234
26091
[ 429 ]
881
2022
2033
2076
2080
2081
2232
2237
2238
2239
2241
2244
2330
2346
2350
2352
2357
2359
2363
2364
2366
2394
2462
2463
2576
24932
[ 430 ]
2248
2314
2316
2323
2355
2358
2360
2362
[ 431 ]
2312
2313
2318
2385
2390
[ 448 ]
8878
[ 449 ]
8910
8916
[ 450 ]
51576
[ 451 ]
6148
6160
19978
39332
47064
47153
47476
50081
50083
50087
50145
50155
50157
50158
50223
50263
50288
50300
50323
50326
[ 452 ]
4029
4064
4082
4288
4318
4321
4324
4329
4349
4350
4361
4386
4407
4410
4555
4879
5668
5734
5956
6170
9196
10649
11636
11673
11674
11700
11706
11710
11786
11920
11933
11939
11964
12001
12492
12504
12690
14255
15117
15969
15974
15989
16038
16082
16313
17005
18890
18895
18945
19042
19139
19165
19265
19515
19519
20019
20440
21160
21161
23312
23380
23397
23412
28970
29003
29004
30976
31595
32010
32013
33724
33916
34037
34095
34098
34106
35886
35887
35912
36022
36086
36094
36235
36848
36854
36923
36951
37401
37941
43064
47001
47010
47411
50086
50105
50142
50144
50147
50269
50294
50316
50324
50996
54566
[ 453 ]
3462
3522
3986
4030
4057
4058
4065
4066
4089
4091
4095
4151
4172
4207
4221
4231
4264
4338
4347
4365
4366
4375
4391
4409
4418
4450
4502
4509
4526
4562
4632
4673
4760
4762
4764
4869
4962
5037
5407
5462
5496
5766
5798
5931
6151
6502
8422
9199
9361
9505
10108
10955
11007
11008
11259
11260
11342
11647
11681
11682
11683
11684
11688
11696
11699
11708
11760
11771
11777
11790
11793
11798
11800
11824
11834
11914
11918
11919
11923
11924
11940
11942
11947
11951
11953
11962
11963
11966
11970
11979
11982
11984
12032
12165
12360
12363
12477
12493
12574
12582
12596
12854
12878
12892
12975
13758
14276
15110
15490
15919
15971
15988
15999
16294
16295
16297
16299
16301
16303
16304
16305
16312
16316
16318
16538
16780
16820
17003
17052
17273
17345
17641
18058
18170
18242
18271
18456
18523
18629
18888
18905
18907
18946
18951
18982
18987
19236
19258
19262
19460
19529
19531
19567
19595
20081
20453
20471
20476
20477
20479
20548
20583
20713
22574
22584
23349
23351
23375
23436
23493
23496
23762
23779
24165
26373
28066
28194
28634
28637
28641
28646
28766
28776
28779
28954
28971
29007
29377
30070
30252
30253
30254
30854
31008
31038
31620
31751
32023
32050
33499
33726
33727
33734
33740
33862
34100
34151
34194
34206
34208
34218
35348
35449
35450
35455
35816
35902
35908
35929
35979
36068
36089
36663
36750
36855
36956
37735
38048
38200
38202
[ 454 ]
3411
3453
3468
3977
3987
3989
3994
4076
4090
4102
4226
4289
4370
4374
4408
4455
4464
4471
4474
4478
4605
4661
4680
4682
4686
4690
4702
4773
4821
4831
5017
5250
5319
5328
5346
5414
5984
6060
6086
6338
6406
6536
9052
9109
9139
9316
9359
9669
9917
10607
11825
11922
11925
11981
11986
11994
11995
12685
12719
12768
12769
12976
13407
13438
13664
13678
13795
14594
14738
15002
15725
15866
15926
16235
16289
16518
16520
16527
16569
16620
16738
16787
16845
17254
17741
17773
17792
17878
18296
18302
18474
18574
18885
18886
18918
19096
19113
19248
19364
19365
19502
19568
19860
20007
20029
20180
20475
20545
20568
20861
21483
21679
23319
23331
23342
23343
23361
23381
23566
23567
23761
23853
24072
24219
24807
25948
26249
27582
28046
28149
28164
28187
28238
28373
28375
28419
28446
28550
28585
28587
28609
28638
28661
28694
28781
28884
28957
28983
28985
29293
29543
30209
30233
30383
30853
31093
31094
31593
31616
31630
31704
31726
31808
31927
33494
33498
33626
33631
33713
34214
34281
34497
34505
34727
34729
34733
34749
34756
35452
35454
35456
35458
35459
35460
35524
35683
35823
35833
35910
35916
35965
37711
37715
37733
37778
38201
38959
39873
[ 455 ]
3302
3303
3315
3321
3322
3337
3338
3369
3373
3450
3454
3493
3525
3529
3534
3537
3579
3765
3862
3990
4000
4006
4009
4101
4532
4608
4717
4846
4848
4849
5337
5971
6016
6544
6753
7428
9046
9055
9104
9108
9125
9157
9244
9262
9343
9354
9357
9585
9619
9632
9659
9664
9927
9928
9947
10545
10589
12634
12681
12734
12736
12748
12750
12754
12757
13053
13056
13067
13075
13112
13117
13118
13121
13136
13137
13158
13395
13495
13497
13539
13542
13587
13665
13670
13680
13802
13803
13820
13826
13836
13841
13948
14009
14398
14400
14406
14490
14714
14732
15190
15656
15762
16269
16288
16428
17132
17174
17210
17212
17408
17745
17809
17872
18284
18288
18292
18294
18297
18298
18300
18388
18486
18488
18532
18534
18584
18605
18674
18697
18879
19081
19086
19093
19114
19124
19366
19407
19421
19456
19616
19654
19659
19689
19766
19773
19797
20041
20089
20222
20754
22732
23666
23751
23755
23763
23764
23771
23976
23981
23985
23986
24005
24007
24009
24039
24189
24255
24496
24899
25037
25076
25188
25274
25285
25540
25945
25947
25953
25954
26009
26148
26276
26328
26493
26577
26734
26736
26830
26872
26883
26905
26908
26909
26910
27210
27212
27220
27225
27250
27414
27506
27541
27545
27736
27773
28103
28134
28144
28145
28155
28214
28328
28331
28350
28398
28417
28440
28442
28529
28551
28862
28880
28886
28892
28894
28953
28982
29027
29366
29796
30205
30274
30279
30280
30612
30703
31097
31783
31809
31906
31907
31982
33282
33476
33614
33640
33648
33651
33659
33664
33665
33674
33687
33709
34481
34489
34500
34501
34508
34542
34544
34552
34661
34663
34665
34666
34667
34685
34699
34705
34707
34716
34719
34721
34722
34728
34732
34735
34739
34741
34751
34752
34759
35482
35504
35585
36420
38563
38967
38978
38994
39951
39952
40008
40078
[ 456 ]
3156
3344
3548
3554
3556
3561
3651
3689
3763
3766
3795
3796
3805
3806
3830
3995
4004
4713
6547
7920
7939
9078
9141
9378
9618
9935
12759
13052
13127
13131
13230
13296
13487
13496
13502
13548
13611
13745
15820
16188
16251
16258
16259
16262
16265
16329
16346
17917
18289
18290
18295
18319
18570
18590
18592
18651
19721
19756
19772
19816
19818
20067
20104
21500
22842
23946
24044
24250
24251
24315
24390
24472
24625
24626
24738
24812
24877
24881
24883
24904
24999
25009
25059
25066
25075
25101
25140
25142
25144
25145
25170
25186
25190
25203
25207
25306
25902
25925
25937
26013
26051
26142
26266
26273
26330
26333
26340
26342
26667
26823
27236
27616
28032
28122
28137
28138
28272
28287
28349
28897
29233
30044
30278
31775
33617
33650
33656
33670
33685
33691
34486
34487
34499
34537
34543
34546
34548
34555
34562
34614
34662
34706
34717
34720
34725
34730
34745
34748
34761
34767
35463
35464
35509
35592
38983
39434
39435
39439
45210
[ 457 ]
2128
3741
3782
9225
24411
24438
24440
24457
24464
24471
24476
24477
24571
24607
24627
24628
24629
24686
24741
24767
24851
24882
24892
24909
24944
24949
24951
24964
24991
25005
25010
25012
25013
25015
25019
25020
25064
25065
25070
25073
25074
25086
25091
25099
25120
25131
25168
25172
25173
25174
25191
25193
25214
25243
25514
26002
33689
34773
[ 458 ]
1000
24458
24462
24689
24867
24868
24948
24950
24959
24968
24976
24993
25022
25067
25082
25215
25230
25250
26054
26285
[ 459 ]
1028
1521
1637
1643
1740
2016
2018
2039
2063
2068
2087
2090
2091
2218
2419
2423
2427
2442
2457
2459
2470
2473
2481
2483
2490
2516
2520
2521
2527
2542
2568
2571
2580
2662
24832
24919
24939
24988
25080
25231
25236
[ 460 ]
803
875
1047
1548
1641
1755
2020
2023
2026
2030
2031
2032
2037
2056
2059
2060
2064
2069
2084
2098
2099
2103
2119
2211
2217
2219
2221
2354
2425
2430
2432
2437
2443
2456
2476
2477
2478
2482
2488
2493
2494
2497
2503
2508
2510
2511
2512
2513
2515
2522
2524
2531
2537
2545
2546
2561
2566
2578
2589
2599
2660
2674
2688
24912
[ 461 ]
822
2003
2005
2011
2014
2055
2077
2078
2212
2213
2226
2233
2345
2399
2413
2414
2581
[ 462 ]
2165
2234
2361
2403
2405
2408
[ 463 ]
2167
2311
[ 483 ]
50089
50090
50285
50296
[ 484 ]
32029
33725
34094
34105
36843
36890
50156
50282
50299
50306
[ 485 ]
28984
33495
35928
[ 486 ]
19041
27219
28863
33920
34731
35822
[ 487 ]
16287
26877
28416
31807
31840
33652
33663
33692
34490
34492
34502
34504
34506
34507
34549
34551
34660
34664
34726
34740
[ 488 ]
3448
26841
34488
34503
34509
34545
34704
34715
34734
34738
[ 489 ]
1005
1644
25138
25153
34485
[ 490 ]
1001
1002
1006
1023
1026
1629
1645
1668
2129
2665
24768
[ 491 ]
826
1027
1100
1200
1253
1398
1529
1544
1546
1547
1621
1630
1640
1648
1649
1655
1677
1699
1713
1728
1729
1730
1733
1797
1973
1980
2028
2038
2053
2066
2071
2073
2074
2097
2150
2188
2216
2449
2468
2472
2484
2485
2523
2536
2539
2548
2563
2564
2569
2579
2584
2585
2597
[ 492 ]
825
861
1216
1220
1339
1530
1654
1685
1695
1702
1706
1720
1726
1731
1739
1788
1800
1801
1815
1816
1860
1865
1868
1869
1971
1976
2006
2017
2036
2040
2052
2061
2062
2086
2096
2101
2102
2104
2105
2110
2131
2138
2139
2151
2174
2177
2192
2193
2201
2215
2367
2416
2429
2441
2448
2450
2486
2492
2514
2517
2518
2519
2525
2529
2530
2552
2601
2666
2669
2670
2671
[ 493 ]
790
793
877
880
1550
1884
1885
1890
1891
1939
1992
2008
2012
2034
2054
2057
2075
2079
2082
2094
2164
2168
2172
2176
2178
2179
2181
2194
2205
2225
2235
2329
2391
2400
2406
2409
2410
2424
[ 494 ]
883
1881
1986
2162
2163
2170
2171
2222
2349
2401
2402
2412
[ 495 ]
2166
2169
2404
[ 515 ]
50146
50322
[ 516 ]
50284
[ 518 ]
28887
[ 519 ]
16236
34703
[ 520 ]
34718
[ 521 ]
1065
[ 522 ]
961
998
999
1169
1417
1478
1538
1540
1541
1631
1665
2130
[ 523 ]
804
957
959
997
1003
1066
1067
1076
1199
1337
1559
1610
1624
1633
1638
1642
1646
1651
1671
1672
1675
1681
1753
1780
1790
1793
1799
1805
1811
1864
1867
1870
1974
1982
2070
2092
2100
2114
2120
2126
2135
2136
2428
2445
2538
2562
[ 524 ]
810
839
878
1218
1230
1272
1273
1360
1471
1607
1608
1627
1647
1666
1676
1678
1680
1682
1690
1696
1716
1717
1735
1742
1775
1798
1808
1817
1821
1822
1823
1825
1842
1871
1892
1897
1898
1899
1900
1902
1948
1970
1979
1983
2013
2015
2019
2050
2093
2106
2109
2111
2116
2117
2121
2123
2137
2143
2147
2186
2187
2191
2195
2203
2421
2426
2446
2467
2469
2474
2475
2496
2526
[ 525 ]
794
821
829
879
1552
1694
1703
1750
1787
1820
1828
1873
1876
1877
1883
1993
2009
2141
2152
2153
2159
2173
2182
2200
2202
2204
2214
2220
2236
2411
2417
2667
[ 526 ]
1874
1880
1882
1886
1998
2206
2209
[ 532 ]
6
[ 538 ]
193
[ 539 ]
141
[ 552 ]
936
937
[ 553 ]
1531
[ 554 ]
934
956
962
994
1008
1025
1031
1032
1069
1138
1172
1284
1364
1539
1639
1652
1658
2115
[ 555 ]
939
942
996
1007
1041
1046
1048
1144
1145
1155
1156
1157
1201
1217
1242
1249
1251
1278
1296
1343
1358
1367
1368
1375
1378
1397
1421
1481
1483
1484
1485
1492
1518
1520
1522
1528
1542
1549
1556
1586
1616
1622
1623
1632
1634
1635
1636
1656
1657
1664
1667
1669
1673
1679
1704
1712
1719
1725
1732
1736
1741
1747
1749
1751
1754
1791
1792
1796
1802
1804
1843
1851
1903
1905
1944
1977
2051
2072
2095
2125
2127
2132
[ 556 ]
805
1029
1056
1089
1229
1237
1250
1271
1333
1341
1342
1359
1414
1416
1425
1433
1434
1465
1475
1507
1519
1527
1551
1555
1562
1563
1626
1650
1662
1663
1683
1684
1687
1692
1705
1711
1718
1734
1743
1744
1745
1760
1789
1807
1812
1814
1818
1819
1826
1839
1844
1845
1846
1850
1852
1855
1861
1866
1887
1901
1947
1950
1953
1975
1978
1981
1985
1989
1990
1994
1996
2002
2035
2113
2118
2133
2134
2140
2146
2149
2157
2183
2184
2185
2189
2198
2199
2210
2447
2465
2466
[ 557 ]
789
792
799
808
876
1078
1079
1080
1081
1082
1338
1688
1693
1721
1776
1777
1785
1786
1824
1872
1878
1888
1894
1946
1991
1995
1999
2043
2044
2190
2208
[ 558 ]
787
885
1879
1987
2004
2175
2180
2207
2407
[ 567 ]
101
103
191
[ 568 ]
42
102
188
190
[ 569 ]
49
133
189
[ 570 ]
21
[ 571 ]
124
[ 572 ]
145
[ 585 ]
935
1004
1010
1022
1071
1400
[ 586 ]
960
990
1009
1012
1015
1020
1030
1040
1058
1061
1093
1116
1184
1264
1318
1406
1408
1438
1479
1480
1493
1505
1537
[ 587 ]
801
802
953
984
993
995
1014
1016
1021
1033
1038
1042
1052
1054
1055
1062
1063
1064
1097
1099
1102
1109
1114
1142
1147
1151
1164
1165
1183
1186
1195
1202
1209
1243
1258
1267
1276
1283
1290
1299
1301
1307
1320
1321
1326
1330
1334
1335
1345
1347
1369
1377
1380
1383
1384
1386
1388
1410
1419
1420
1424
1435
1457
1466
1467
1470
1487
1488
1491
1495
1496
1497
1498
1500
1509
1511
1516
1524
1525
1557
1558
1589
1609
1612
1615
1617
1625
1628
1653
1689
1698
1710
1715
1724
1748
1756
1758
1803
1827
1854
1856
1857
1904
1966
1969
1984
1988
2041
2045
2046
2112
2124
2196
[ 588 ]
798
800
807
813
820
823
827
833
943
958
974
1049
1053
1084
1085
1113
1134
1192
1203
1205
1214
1233
1234
1235
1236
1247
1248
1254
1262
1274
1280
1281
1291
1327
1336
1340
1344
1357
1366
1422
1468
1474
1476
1494
1503
1517
1526
1543
1545
1553
1561
1594
1613
1619
1661
1686
1697
1700
1709
1714
1746
1752
1762
1778
1794
1806
1809
1810
1841
1853
1859
1889
1893
1911
1936
1940
1942
1945
1949
1951
1952
2042
2048
2122
2144
2148
2155
2156
2197
2509
2668
[ 589 ]
781
791
816
817
830
832
870
887
889
890
940
1044
1075
1088
1091
1221
1472
1701
1727
1767
1779
1781
1813
1837
1849
1862
1863
1895
1896
1906
1928
1929
1931
1932
1941
1997
2001
2010
2047
2145
2154
2158
2160
[ 590 ]
783
788
849
941
2161
[ 594 ]
70
[ 595 ]
4
5
11
[ 596 ]
2
3
64
82
[ 597 ]
1
16
105
106
[ 598 ]
13
15
98
[ 600 ]
43
182
192
[ 601 ]
38
39
112
149
[ 602 ]
162
180
181
184
[ 603 ]
128
154
173
194
[ 604 ]
136
161
[ 606 ]
158
159
[ 617 ]
933
1148
1409
1436
[ 618 ]
928
929
932
938
949
952
992
1011
1068
1103
1105
1150
1153
1163
1166
1167
1168
1174
1176
1257
1391
1392
1395
1396
1399
1402
1407
1440
1477
1499
1532
1536
1567
1604
1674
[ 619 ]
824
947
969
973
987
988
989
1017
1024
1035
1037
1039
1045
1070
1107
1115
1117
1120
1124
1127
1129
1130
1135
1137
1140
1158
1171
1178
1179
1180
1181
1187
1188
1198
1204
1206
1208
1226
1240
1252
1260
1275
1277
1286
1289
1294
1295
1303
1304
1308
1315
1325
1329
1331
1350
1353
1362
1371
1374
1376
1379
1381
1387
1394
1404
1405
1415
1418
1426
1430
1431
1441
1461
1464
1486
1490
1508
1513
1535
1565
1605
1606
1611
1614
1707
1737
1759
1763
1769
1830
1840
1858
1954
1955
1965
1967
[ 620 ]
809
811
812
818
828
872
884
910
944
954
1018
1043
1050
1083
1086
1090
1106
1110
1132
1141
1149
1219
1222
1223
1225
1227
1232
1244
1255
1263
1265
1285
1302
1314
1332
1354
1361
1370
1423
1459
1489
1577
1584
1588
1618
1620
1659
1660
1670
1708
1761
1764
1765
1847
1848
1909
1910
1927
1935
1937
1958
1960
2000
2049
[ 621 ]
777
778
779
782
784
814
819
835
859
888
891
1051
1224
1231
1245
1279
1297
1560
1723
1738
1772
1795
1833
1835
1838
1875
1908
1925
1934
[ 622 ]
776
841
845
853
854
886
1092
1783
1930
[ 623 ]
1074
[ 625 ]
61
81
[ 626 ]
7
60
71
[ 627 ]
9
59
63
[ 628 ]
12
54
68
[ 629 ]
93
95
111
[ 630 ]
66
99
100
109
[ 631 ]
17
48
56
94
104
114
183
[ 632 ]
18
19
40
41
50
113
143
148
187
[ 633 ]
121
122
134
147
150
163
185
195
196
197
[ 634 ]
23
24
129
142
144
202
[ 635 ]
34
137
139
140
155
164
165
[ 636 ]
33
166
167
172
174
[ 637 ]
32
156
175
[ 638 ]
157
[ 649 ]
991
[ 650 ]
927
930
931
968
1013
1059
1072
1094
1101
1104
1128
1152
1160
1170
1175
1185
1256
1269
1300
1382
1393
1456
1515
1523
1533
[ 651 ]
902
904
911
912
914
945
950
951
955
963
964
967
976
978
980
981
983
1019
1057
1095
1096
1098
1108
1118
1121
1125
1126
1146
1173
1177
1182
1210
1211
1213
1239
1241
1246
1282
1293
1306
1309
1310
1317
1319
1322
1323
1346
1348
1349
1351
1356
1365
1372
1373
1385
1389
1390
1401
1403
1411
1412
1427
1432
1445
1463
1501
1502
1504
1506
1512
1566
1573
1574
1575
1587
1593
1596
1597
1601
1603
1757
1771
1774
2142
[ 652 ]
763
796
806
873
921
922
946
975
977
982
986
1060
1087
1119
1131
1133
1136
1159
1194
1212
1215
1238
1259
1268
1298
1305
1462
1473
1482
1514
1554
1578
1583
1585
1598
1766
1768
1770
1782
1829
1831
1907
1914
1933
1943
1961
1964
1968
[ 653 ]
384
815
831
837
850
856
862
869
1228
1428
1576
1722
1773
1784
1832
1836
1916
1926
1938
[ 654 ]
392
768
795
834
840
842
855
857
863
867
871
[ 655 ]
775
[ 656 ]
73
[ 657 ]
8
[ 658 ]
62
79
[ 660 ]
69
74
97
[ 661 ]
14
57
86
[ 662 ]
45
75
[ 663 ]
53
118
120
221
[ 664 ]
47
51
116
119
186
198
[ 665 ]
31
52
117
123
201
[ 666 ]
20
25
30
35
37
125
153
[ 667 ]
36
131
132
151
[ 668 ]
127
146
[ 669 ]
179
[ 670 ]
178
[ 671 ]
176
177
[ 682 ]
908
965
1162
1193
1197
1439
1458
1568
1569
[ 683 ]
907
909
915
916
919
923
948
966
970
971
979
1123
1143
1154
1161
1189
1191
1196
1207
1266
1270
1292
1311
1313
1324
1328
1352
1413
1429
1451
1453
1454
1455
1469
1534
1564
1570
1571
1572
1590
1592
1595
1918
1920
1921
1956
[ 684 ]
874
920
985
1034
1036
1287
1288
1312
1316
1355
1363
1460
1510
1602
1913
1917
1922
1923
1924
1963
[ 685 ]
797
838
843
860
868
898
901
1073
1580
1691
1962
[ 686 ]
385
413
759
767
774
786
846
848
866
895
896
1579
[ 687 ]
785
[ 688 ]
400
528
[ 689 ]
72
419
[ 690 ]
80
[ 691 ]
58
[ 692 ]
76
84
[ 693 ]
77
87
88
96
[ 694 ]
10
55
67
91
107
[ 695 ]
46
110
199
[ 696 ]
44
115
[ 697 ]
28
29
152
297
[ 698 ]
130
135
138
200
222
[ 699 ]
22
170
[ 700 ]
169
[ 703 ]
160
[ 714 ]
925
926
972
1437
1443
[ 715 ]
906
913
1112
1122
1139
1190
1261
1444
1447
1452
1834
1915
1919
[ 716 ]
769
918
924
1442
1581
1599
1912
1957
1959
[ 717 ]
386
756
760
770
836
844
851
864
865
894
899
1582
[ 718 ]
388
391
755
761
771
773
858
892
[ 719 ]
404
453
648
[ 720 ]
451
452
456
527
[ 721 ]
428
458
[ 723 ]
78
357
361
[ 724 ]
65
85
359
[ 726 ]
92
[ 727 ]
90
220
[ 728 ]
108
211
214
219
[ 729 ]
26
126
223
292
[ 730 ]
27
296
[ 731 ]
171
293
[ 734 ]
168
[ 747 ]
905
917
1448
1591
[ 748 ]
584
628
1446
1450
1600
[ 749 ]
390
399
531
633
650
682
684
738
743
750
754
757
764
780
[ 750 ]
369
380
397
407
412
471
652
667
670
722
765
847
852
897
[ 751 ]
367
410
411
416
441
450
484
526
740
742
[ 752 ]
364
405
442
[ 753 ]
368
378
447
457
[ 754 ]
360
362
421
[ 755 ]
83
365
[ 757 ]
268
282
[ 758 ]
301
[ 759 ]
89
212
213
234
289
299
300
[ 760 ]
227
[ 761 ]
203
210
235
238
255
284
288
[ 762 ]
225
[ 763 ]
239
[ 778 ]
903
[ 779 ]
711
1111
1449
[ 780 ]
675
714
720
900
[ 781 ]
370
382
387
389
398
506
582
605
607
656
669
671
677
681
683
685
687
724
727
729
732
733
734
746
758
772
[ 782 ]
403
409
469
478
485
489
490
533
608
635
659
660
666
668
673
712
753
762
[ 783 ]
372
393
394
395
401
406
415
417
486
487
503
643
730
893
[ 784 ]
374
375
439
449
459
516
[ 785 ]
366
418
425
448
455
[ 786 ]
363
424
433
[ 787 ]
345
[ 788 ]
247
[ 789 ]
265
[ 790 ]
216
337
[ 791 ]
217
241
242
244
257
270
280
298
[ 792 ]
226
228
237
279
281
290
[ 793 ]
204
240
287
294
[ 794 ]
236
295
[ 795 ]
224
254
[ 796 ]
273
274
[ 811 ]
715
728
[ 812 ]
555
581
588
611
706
707
717
718
725
[ 813 ]
383
543
572
575
583
606
636
657
676
686
692
699
700
713
721
723
739
748
751
[ 814 ]
371
373
377
396
408
414
465
468
470
488
499
501
641
644
651
658
672
674
679
747
749
752
766
[ 815 ]
379
381
443
464
472
474
481
491
509
510
529
647
741
[ 816 ]
420
440
454
[ 817 ]
426
427
444
445
446
518
[ 818 ]
302
430
435
517
[ 819 ]
303
[ 820 ]
248
356
[ 821 ]
261
267
336
[ 822 ]
208
249
262
338
[ 823 ]
206
215
218
283
286
339
[ 824 ]
209
232
256
278
323
[ 825 ]
230
251
277
334
[ 826 ]
272
[ 827 ]
275
285
[ 843 ]
585
632
709
716
[ 844 ]
580
596
597
693
696
703
719
737
[ 845 ]
473
476
477
542
547
569
570
579
601
603
613
629
639
680
694
698
[ 846 ]
376
402
483
496
532
538
609
615
630
634
646
649
661
688
744
745
[ 847 ]
422
494
642
645
[ 848 ]
423
436
438
479
515
523
524
[ 849 ]
461
[ 850 ]
429
434
514
[ 851 ]
246
[ 852 ]
263
358
[ 853 ]
349
351
352
[ 854 ]
205
266
304
347
[ 855 ]
258
335
348
[ 856 ]
259
[ 857 ]
243
250
276
[ 858 ]
231
[ 859 ]
252
[ 860 ]
253
[ 875 ]
556
594
[ 876 ]
553
554
561
563
576
577
592
595
600
638
690
697
701
704
708
710
731
735
[ 877 ]
466
480
505
546
559
562
571
578
586
591
604
610
618
623
637
640
654
655
663
678
689
[ 878 ]
462
463
475
507
530
537
541
566
619
631
[ 879 ]
437
492
497
500
502
504
508
536
539
[ 880 ]
511
522
[ 881 ]
512
[ 883 ]
344
[ 884 ]
305
310
[ 885 ]
245
306
341
346
350
355
[ 886 ]
264
327
328
[ 887 ]
207
233
269
[ 888 ]
291
322
[ 889 ]
229
271
332
333
[ 907 ]
599
665
[ 908 ]
552
557
568
589
590
593
598
612
614
726
[ 909 ]
534
550
560
565
573
602
616
620
626
627
653
662
664
691
705
[ 910 ]
535
544
551
587
736
[ 911 ]
482
493
495
540
545
[ 912 ]
460
525
[ 913 ]
519
[ 915 ]
309
313
314
431
[ 917 ]
260
307
315
316
329
340
342
354
[ 918 ]
325
326
353
[ 920 ]
320
331
[ 921 ]
321
[ 940 ]
617
621
[ 941 ]
558
564
622
625
695
702
[ 942 ]
498
549
[ 944 ]
521
[ 945 ]
432
513
520
[ 947 ]
311
[ 948 ]
308
312
[ 949 ]
324
[ 950 ]
318
343
[ 952 ]
330
[ 972 ]
574
[ 973 ]
567
624
[ 974 ]
467
[ 981 ]
319
[ 1006 ]
548
[ 1012 ]
317
