[ 5 ]
18890
[ 15 ]
21552
[ 37 ]
18891
[ 65 ]
23471
[ 69 ]
18899
[ 81 ]
351
21549
21716
[ 82 ]
21512
[ 83 ]
9044
[ 98 ]
19817
[ 99 ]
18894
23470
23479
[ 100 ]
19282
19682
[ 101 ]
18902
[ 111 ]
21554
[ 112 ]
21569
[ 113 ]
3963
21544
[ 117 ]
13730
[ 130 ]
19278
19815
19842
[ 131 ]
19209
20222
[ 132 ]
19007
23481
[ 133 ]
18897
23477
23508
[ 135 ]
18017
20569
[ 141 ]
21679
[ 144 ]
15686
21568
21586
[ 145 ]
535
9094
21519
21553
21582
[ 146 ]
361
21449
21451
[ 147 ]
7814
13729
21567
[ 148 ]
1038
[ 149 ]
1024
9109
[ 162 ]
19083
19090
19393
[ 163 ]
17739
19085
19091
19281
19593
19725
19735
19803
19804
19948
[ 164 ]
17702
17844
19095
[ 165 ]
17761
19307
[ 166 ]
17968
18011
23394
[ 167 ]
18900
[ 175 ]
8298
15605
21555
21573
[ 176 ]
1765
8299
8312
21992
[ 177 ]
8334
9032
15598
21486
21509
21558
[ 178 ]
342
359
1175
8297
8304
8318
8320
8321
8323
9034
10795
15687
21440
21492
21511
21541
[ 179 ]
358
7816
8325
17003
21377
21437
21495
29933
[ 180 ]
299
326
356
15607
21505
21551
21601
21692
[ 181 ]
331
340
21383
21561
[ 182 ]
353
1020
1023
[ 193 ]
19002
[ 194 ]
19088
19093
19269
19559
19846
20324
20784
23474
23475
[ 195 ]
17745
17751
19087
19272
19288
19392
19605
19628
19702
19816
19910
23257
[ 196 ]
17738
18205
18896
18898
18901
19010
19097
19167
19290
19302
19706
20503
23464
23468
[ 197 ]
18021
19273
19720
23506
[ 198 ]
19129
19528
[ 199 ]
17714
17956
[ 200 ]
18013
18187
[ 202 ]
17921
[ 206 ]
21578
21936
[ 207 ]
21517
21570
[ 208 ]
1235
7999
21388
21559
21574
21604
22093
[ 209 ]
8314
8332
8336
12213
15597
15610
15622
15688
21435
21436
21520
[ 210 ]
335
1140
8300
8301
8316
9023
10308
12943
15596
15600
21382
21548
29441
[ 211 ]
364
544
1230
8249
8329
9052
15618
15681
21394
21485
21513
21545
21714
21989
[ 212 ]
378
9038
9041
9067
16119
21385
21439
21454
21488
[ 213 ]
319
365
6499
6518
8303
9040
21402
21430
[ 214 ]
296
8331
8917
[ 225 ]
19667
[ 226 ]
19092
19094
19148
19419
19561
20544
23476
[ 227 ]
18903
19005
19149
19154
19158
19177
19312
19314
19349
19546
19562
19594
19709
19802
19810
19835
19839
23480
23494
[ 228 ]
17736
18020
19162
19194
19309
19315
19340
19502
19723
19726
19814
20559
23176
23308
[ 229 ]
17750
17759
18003
19119
19503
19759
20028
22281
22840
[ 230 ]
17737
18010
18014
18018
19533
20602
22279
[ 231 ]
17885
18857
20426
23510
[ 232 ]
17660
[ 233 ]
17699
18278
[ 234 ]
1756
[ 235 ]
1755
14210
18839
[ 237 ]
1749
[ 238 ]
1136
1561
18825
21510
21577
[ 239 ]
1681
1780
2598
13031
21562
21575
21576
[ 240 ]
264
446
911
2599
10311
17870
21516
21534
21536
21985
[ 241 ]
1207
1788
6226
7995
8326
9126
10306
10312
10796
15536
15614
15615
16443
21429
21539
28390
29582
[ 242 ]
255
306
527
743
6201
6458
6482
6776
8310
8319
8337
9004
9114
10319
10791
11746
13183
14447
15379
15642
15658
15683
17161
17225
21438
21514
21557
21965
28143
28391
28427
[ 243 ]
329
349
416
537
912
1153
1155
5463
8313
8328
8496
8931
8985
9047
9069
9176
10313
11753
12708
12753
13223
13704
15609
15616
15617
15626
15639
15645
15671
17018
21474
21529
29508
29596
[ 244 ]
295
330
354
514
533
918
1152
1231
6310
6612
7745
8227
8282
8324
9013
9224
9288
14611
15672
15717
16066
16100
21470
21490
21522
21962
[ 245 ]
315
320
370
893
1213
1232
6177
8335
9035
9061
9070
13700
15249
16174
17047
21715
21991
[ 246 ]
321
372
8322
10128
[ 247 ]
465
[ 256 ]
20849
[ 257 ]
23500
[ 258 ]
17753
18938
18997
19006
19065
19081
19096
19099
19207
19227
19541
19566
19595
19626
19630
19658
20072
20178
20295
23336
23469
23496
23497
[ 259 ]
18354
18909
18999
19016
19082
19086
19098
19104
19137
19179
19181
19197
19225
19240
19264
19266
19275
19293
19316
19415
19535
19569
19570
19574
19616
19644
19665
19672
19718
19719
19805
19818
19986
20335
20350
20389
20744
20842
23139
23249
23254
23423
[ 260 ]
17752
19000
19159
19168
19184
19187
19216
19224
19305
19490
19531
19552
19584
19635
19707
19768
19808
19832
20007
20069
20247
20249
20342
20366
20409
20737
20817
23103
23243
23256
[ 261 ]
17664
17778
17965
17967
18012
18895
19192
19313
19326
19571
19756
20030
20068
20445
20460
20617
20832
23111
[ 262 ]
17697
17812
17934
17946
18004
18022
18371
18858
19538
20024
20107
20128
20560
20921
22260
22775
22834
23504
[ 263 ]
17691
17865
17867
17957
17970
18217
18249
18336
18456
18529
22338
23849
[ 264 ]
17943
17944
18196
18479
[ 265 ]
17915
17923
18252
18817
23507
[ 266 ]
22166
[ 267 ]
1737
2069
18106
18189
[ 268 ]
1668
1697
1734
2033
17884
18833
[ 269 ]
1691
1784
16382
18549
21543
[ 270 ]
1610
1636
1696
1699
1753
12960
15603
18540
[ 271 ]
1667
1676
1689
1803
1815
1857
11709
15612
16429
17872
21515
21583
21587
27669
28249
[ 272 ]
1781
1799
2619
2720
11155
15089
15593
15619
15673
16396
16398
16409
17098
17887
21428
21533
21571
21580
22037
[ 273 ]
513
1145
1526
1796
8269
8311
9043
9063
11428
11488
12923
12944
13056
13235
13381
14667
14875
15592
15620
15625
15632
16214
16229
16393
21387
21699
29584
[ 274 ]
314
333
344
453
520
524
561
1137
1147
1229
1236
1295
2608
2735
3648
3762
3804
5340
5447
8171
8178
8228
8317
8327
8506
9025
9037
9095
10126
11864
12754
13044
13703
14510
14981
15396
15464
15624
15660
15758
16003
17185
17231
21448
21496
21538
21565
21566
21731
21738
21808
21920
28407
29546
[ 275 ]
304
308
350
478
482
543
1208
1226
1778
3732
6200
6547
6604
6750
8306
8333
8341
8571
8984
9007
9039
9289
10118
11670
13199
15221
15591
15638
15663
15682
15771
16428
16504
17303
18714
21441
21481
21487
21491
21560
21878
21943
29230
29506
29590
29602
29773
[ 276 ]
261
367
371
432
512
1102
1214
1222
1329
4469
5890
6301
6407
6466
6480
6618
6780
7813
7815
8169
8669
8850
9017
9048
9886
10100
10105
12747
12932
15589
15628
15752
16818
21386
21453
21483
27520
28149
28396
[ 277 ]
303
360
1040
6302
6307
6460
6529
6551
6642
7762
8619
8994
9055
9177
9864
10797
12945
13014
21697
21750
21777
21932
28908
[ 278 ]
368
531
570
6515
6555
8183
8914
8999
9123
9125
9228
9847
14938
15951
21393
[ 279 ]
704
1022
6504
10132
15031
21941
28329
[ 280 ]
6304
6309
[ 288 ]
23338
[ 289 ]
19568
[ 290 ]
17740
18998
19066
19084
19101
19143
19146
19271
19473
19505
19511
19554
19563
19565
19572
19606
19646
19733
19809
19813
19840
20187
20532
20533
23068
23131
23136
23142
23232
23333
23335
23467
[ 291 ]
17730
17969
19001
19012
19013
19015
19018
19021
19055
19075
19102
19144
19165
19180
19185
19196
19198
19215
19217
19218
19238
19239
19242
19243
19248
19249
19263
19277
19279
19318
19356
19403
19456
19495
19510
19544
19583
19592
19637
19645
19661
19664
19669
19700
19724
19843
19844
19916
20214
20223
20312
20332
20381
20385
20430
20546
20624
20788
20829
23074
23133
23182
23221
23241
23741
[ 292 ]
17681
17725
17810
18943
18948
18965
18992
19011
19017
19019
19026
19040
19103
19142
19171
19232
19258
19274
19298
19306
19308
19354
19357
19519
19526
19543
19545
19614
19639
19657
19663
19679
19685
19708
19721
19729
19755
20119
20252
20387
20428
20469
20476
20726
20748
20766
20818
20843
22866
23250
23253
23427
[ 293 ]
17686
17690
17698
17710
17742
17808
17823
17855
17858
17980
18016
18211
18451
18910
19118
19163
19687
20452
20653
22482
22550
23107
23114
23161
23179
23229
23280
23409
[ 294 ]
17687
17695
17715
17716
17772
17981
17984
17985
17992
18027
18069
18250
18505
20467
20924
21162
22557
22902
23109
23376
24325
25913
[ 295 ]
16364
16365
17727
17818
17911
17930
17945
18006
18019
18024
18273
18329
18387
18475
18509
18524
18864
18872
20110
20126
20564
22183
22248
22478
23385
23424
23515
24036
[ 296 ]
17696
18120
18431
20271
20572
21001
21046
23391
23511
24032
24740
[ 297 ]
14061
16362
17835
17920
18388
21066
24241
25088
[ 298 ]
2048
17701
20877
24388
24826
26651
[ 299 ]
1710
1754
16367
17880
17882
[ 300 ]
1547
1760
2130
16338
16455
17868
17881
18821
[ 301 ]
1448
1519
1552
1592
1632
1640
1659
1669
1700
1712
1746
1751
2077
17873
17889
17892
[ 302 ]
1555
1565
1572
1590
1603
1802
1814
2087
11654
15336
16392
17325
17886
29794
[ 303 ]
1577
1581
1692
1731
1748
1770
1786
5418
10321
13413
13876
14801
16378
16394
16450
16920
17318
17411
18536
21523
27106
29067
29742
[ 304 ]
447
728
1083
1568
1606
1773
1776
1783
1790
1800
1848
1854
3307
9186
10184
10281
10352
11635
11840
13528
13790
15338
15623
15629
16406
16419
18551
18581
21452
21542
21546
21592
21909
22039
22040
22066
22095
27030
28157
29132
29545
29583
29585
[ 305 ]
285
297
327
390
424
993
1233
1779
1794
1823
2690
4937
5465
5529
6174
6204
6224
6230
8167
8207
8302
8539
8614
9854
10096
10284
10314
10316
10322
10758
11747
11790
12775
13029
13109
13426
13494
14787
14815
15075
15181
15594
15595
15611
15621
15640
16064
16460
17176
17283
17486
17505
21475
21528
21540
21602
21693
21706
21710
21918
22010
28159
28426
29477
29544
29598
29610
29734
[ 306 ]
263
270
273
307
322
341
501
731
941
1148
1154
1157
1241
1769
1804
3962
5528
6617
6774
7034
8348
8459
8480
8616
9015
9075
9081
9193
9209
9247
9891
9960
10071
10074
10107
10110
10245
10285
10320
10793
11679
12742
12871
12965
13229
13615
15059
15365
15540
15601
15759
15964
16150
16161
16412
17021
17064
17200
17259
17277
17341
17614
18583
21395
21442
21450
21508
21585
21924
21945
21976
22018
27525
28077
28432
28433
29033
29138
29520
29558
29631
[ 307 ]
279
309
328
334
411
412
460
491
903
1143
1569
1764
6303
6542
6646
6775
7683
8184
8216
8292
8381
8463
8478
8492
8610
8620
8624
8661
9053
9068
9074
9105
9120
9255
9786
10162
11120
11703
11710
11748
11771
12934
13058
13080
13162
13367
13537
13789
13821
14559
14928
15473
15602
15604
15641
15662
15680
15761
16127
16201
16203
16439
17254
17255
21401
21472
21504
21599
21669
21703
21736
21801
21865
21905
21988
22088
28439
28671
29133
29528
29628
29744
[ 308 ]
312
392
461
463
546
629
662
1224
1330
6317
6454
6479
6632
6687
8202
8232
8440
8753
8989
8990
9033
9423
9892
10104
10117
10794
12693
13340
13698
15413
15770
16087
16091
16418
16449
16505
17592
21609
21933
28113
28404
29029
29524
29746
29938
[ 309 ]
298
369
430
530
815
1126
1218
4204
6442
6468
6486
6493
6521
8221
8285
8330
8501
8651
8765
9036
9184
9237
9869
10120
12768
12802
12939
13705
14968
15541
16078
16138
21391
21396
21426
21721
29860
[ 310 ]
325
562
1111
6167
6184
6509
8628
8981
9122
9175
9227
9243
9262
9370
12801
12841
12937
13818
21917
29480
29623
[ 311 ]
454
6527
8625
9229
9865
12808
28428
[ 312 ]
6453
10102
21456
[ 313 ]
6513
[ 314 ]
6507
[ 315 ]
29627
[ 321 ]
19694
20078
23148
23321
23495
23548
[ 322 ]
19024
19060
19169
19304
19387
19420
19500
19507
19689
19698
19799
19807
20145
20174
20202
20239
20408
20432
20746
23305
23478
23502
[ 323 ]
17829
17975
18911
18912
18916
18921
18928
18941
18947
18984
19008
19029
19036
19072
19105
19138
19147
19150
19151
19152
19157
19190
19203
19204
19206
19223
19234
19237
19244
19254
19265
19270
19284
19287
19289
19291
19320
19327
19343
19352
19355
19394
19400
19405
19423
19452
19534
19542
19550
19551
19553
19556
19558
19576
19585
19597
19598
19608
19633
19640
19643
19651
19652
19668
19676
19693
19731
19754
19785
19834
19837
19841
19850
19853
19874
19893
19922
19923
19937
19972
20004
20014
20083
20177
20211
20243
20250
20261
20301
20333
20348
20359
20392
20395
20434
20473
20531
20545
20551
20610
20758
20776
23117
23152
23154
23188
23226
23230
23244
23293
23309
23331
23392
23444
23457
23486
23498
23503
23633
[ 324 ]
17734
17743
17755
17757
17769
17816
17989
18407
18410
18892
18904
18942
18946
18959
18963
18996
19009
19038
19041
19134
19136
19145
19164
19202
19220
19230
19253
19257
19276
19280
19303
19311
19334
19438
19447
19468
19469
19506
19521
19527
19564
19579
19610
19613
19655
19697
19713
19746
19806
19863
19873
19882
19927
19956
19962
19971
19987
19989
20018
20184
20192
20210
20284
20288
20318
20330
20338
20360
20394
20404
20478
20491
20738
20757
20838
20845
21121
22857
23055
23083
23102
23105
23108
23122
23129
23164
23191
23192
23224
23255
23344
23465
23726
[ 325 ]
16339
17674
17709
17724
17809
17811
17852
17982
18001
18062
18102
18455
18877
18935
18953
18955
18980
19124
19131
19155
19160
19161
19231
19250
19437
19530
19701
19705
19736
19760
19767
20025
20081
20106
20280
20341
20561
20574
20578
20626
20638
22272
22889
22918
22968
23165
23171
23180
23234
23245
23248
23388
23404
23411
25205
26028
[ 326 ]
17704
17712
17717
17731
17768
17794
17814
17815
17909
18035
18052
18070
18126
18190
18208
18214
18236
18381
18449
18893
19051
19411
19539
19728
20053
20093
20575
20606
20639
20641
20732
20754
20768
20846
22602
22621
22909
22998
23097
23121
23289
23393
23410
23415
23426
23463
23906
24359
24982
25864
26049
[ 327 ]
12230
16360
17718
17847
17961
17976
17986
18034
18061
18100
18178
18188
18233
18266
18458
18502
18838
18968
19125
19929
20109
20416
20461
20682
20761
20872
22241
22306
22383
22483
22490
22579
22601
22615
22688
23084
23106
23512
23537
23827
23909
25382
25683
25857
25898
26265
[ 328 ]
12227
16357
16361
17749
17837
17918
17928
17953
17958
18194
18508
18510
18511
18519
18819
18889
20090
20454
21109
22232
22246
22261
22301
22352
22368
22382
22493
22632
24137
24772
24795
25179
25192
25654
25809
25915
26354
[ 329 ]
2053
12237
12245
16337
16348
17866
18171
18264
18271
18866
20971
22211
22292
23429
23984
24035
25081
25279
26387
[ 330 ]
2025
17678
18398
18820
22195
22362
24291
24446
24889
25265
26244
26641
26653
[ 331 ]
1707
2137
13904
16335
16346
17657
17913
18395
22310
24300
[ 332 ]
1587
1589
1658
1703
1733
1735
1843
1870
2011
2019
2024
2078
2089
13908
16399
22002
[ 333 ]
1521
1573
1633
1644
1665
1671
1672
1674
1695
1701
1727
1729
1743
1988
1998
2002
2067
17655
18530
[ 334 ]
1533
1574
1626
1641
1670
1682
1688
1704
1711
1738
1782
1785
1863
1987
2009
13039
13237
16383
16385
16457
17883
21584
21593
21981
21993
26987
27937
[ 335 ]
604
1528
1559
1628
1639
1680
1705
1713
1807
1808
1816
1827
1856
1983
6055
11644
11867
13081
13833
14871
15756
16403
17443
17492
21499
21921
22007
22120
28379
29745
[ 336 ]
681
1524
1795
1798
1844
1944
1996
2611
3078
5339
6075
8236
8244
8591
9097
9185
10042
11438
11645
11737
11811
11838
12904
13015
13089
13618
15329
15333
15583
15599
15689
15746
16260
16415
16423
16425
16470
16851
17871
21527
21547
21603
21861
21923
22104
27445
27469
27514
27621
28242
28361
28556
28825
29147
29202
29215
29942
[ 337 ]
345
427
484
555
914
1245
1822
2771
3828
4284
4474
5462
6202
8342
8385
8454
8483
8488
8512
8604
8925
9051
9064
9773
9905
10027
10059
10060
10310
10521
11176
11573
11615
11634
13102
13116
13180
13214
13359
13370
13656
13731
14488
14892
15180
15253
15300
15314
15613
15637
15643
15664
15690
15700
15738
15962
16182
16191
16384
16413
17305
17352
17426
21444
21469
21537
21903
21987
22043
27529
27753
28431
29229
29265
29504
29756
[ 338 ]
323
476
483
939
956
1198
1326
1391
1664
1943
3178
3583
5395
6195
6211
6492
6697
7994
8002
8027
8245
8451
8466
8475
8526
8582
8588
8596
8609
8612
8626
8647
8950
9016
9030
9150
9218
9450
9781
9783
9846
9967
10095
10108
10176
10220
10570
10842
11177
11192
11429
11655
12750
12766
12811
12884
12906
12984
12991
13062
13123
13516
13644
13697
13787
14558
14904
14961
15070
15105
15198
15326
15407
15545
15547
15569
15661
15775
16009
16017
16070
16153
16187
16298
16329
16407
16417
16421
17086
17240
17618
21477
21493
21518
21550
21605
21771
21828
21897
21912
21944
21951
21986
22068
22094
28102
28141
28248
28408
28430
28911
28943
29542
29680
29754
29988
[ 339 ]
254
347
355
379
539
559
1527
1821
1826
2635
2722
2736
3733
3750
3819
4261
4397
5007
5533
6160
6194
6306
6472
6554
6576
6659
6663
6680
7817
8037
8230
8268
8276
8294
8305
8353
8403
8415
8436
8437
8511
8599
8632
8671
8673
8687
8842
8978
9028
9045
9046
9215
9267
9839
10073
10111
10252
10283
10307
11058
11742
12664
12686
12785
12812
13020
13145
13482
14429
15260
15360
15416
15417
15484
15579
15669
15691
15776
16004
16069
16218
16233
16426
16963
17023
17323
17597
18715
21381
21434
21649
21698
21709
21818
21954
21969
21977
22087
27338
28016
28566
29007
29032
29094
29118
29120
29174
29443
29603
29643
29718
29725
29829
29932
29967
[ 340 ]
277
399
467
538
575
736
872
902
955
1021
1171
1172
1174
1228
1251
1303
1311
2818
3815
6471
6475
6484
6523
6526
6541
6571
6648
6666
6732
7751
8189
8217
8250
8279
8309
8467
8542
8550
8606
8615
8627
8642
8658
8667
8670
8692
9005
9022
9049
9066
9071
9079
9106
9220
9246
9273
9336
9850
9862
9871
10103
10125
10174
10305
10904
11154
11671
12692
12761
12764
12772
13187
13212
13640
14766
15071
15117
15724
15750
15769
15774
16108
16224
16262
17313
17322
17444
17609
18716
21370
21414
21423
21457
21478
21687
21765
21786
21798
21837
21879
21885
21907
21928
22016
28389
28395
28397
28406
28410
28438
28629
28640
28895
29170
29271
29275
29494
29729
29869
29949
29958
[ 341 ]
301
428
431
433
734
907
1328
4471
5068
5185
6012
6210
6216
6251
6372
6455
6465
6476
6477
6494
6614
6620
6638
8206
8621
8623
8652
8725
8936
9057
9062
9084
9127
9231
9290
9844
10106
10112
10147
12638
12807
12814
12863
12936
13647
14511
15242
15358
15552
15657
15692
15767
16045
16175
16414
17196
17273
21380
21489
21982
29448
29625
29626
29655
29905
[ 342 ]
300
441
516
1115
1209
3154
6229
6308
6435
6459
6524
6530
6599
6643
7752
8442
8701
8825
9178
9868
12809
12867
14964
16159
21404
21763
28400
[ 343 ]
708
1042
3724
6217
6464
6538
6639
8570
8736
8760
8788
9008
9031
9852
9853
10094
21717
21806
21906
22017
28639
[ 344 ]
6231
6443
6649
9113
16037
[ 345 ]
6637
[ 352 ]
19079
23343
[ 353 ]
23334
23547
[ 354 ]
18008
18913
18927
18934
18983
19028
19153
19170
19211
19246
19260
19268
19351
19358
19434
19588
19636
19638
19673
19801
19838
19912
19920
19949
20097
20173
20176
20195
20233
20337
20809
20822
20839
23134
23149
23153
23162
23169
23310
23328
23460
23493
23551
23601
23636
23761
[ 355 ]
17671
17694
17831
18015
18404
18925
18936
18952
18991
18993
18994
18995
19022
19034
19068
19139
19140
19166
19183
19186
19212
19214
19222
19228
19229
19251
19267
19310
19319
19322
19329
19346
19362
19369
19371
19386
19397
19407
19413
19414
19417
19418
19441
19458
19463
19479
19501
19514
19540
19547
19567
19589
19600
19617
19619
19620
19621
19624
19642
19653
19690
19703
19714
19732
19738
19751
19752
19784
19790
19884
19907
19908
19935
19970
19973
19981
20015
20047
20179
20199
20213
20218
20224
20320
20327
20334
20346
20354
20357
20393
20470
20534
20717
20743
20779
20835
23132
23137
23146
23157
23216
23223
23225
23240
23283
23337
23354
23441
23458
23572
23574
23659
23727
23794
26006
[ 356 ]
17706
17741
17763
17770
18367
18373
18406
18884
18932
18950
18957
18967
18970
19020
19049
19057
19195
19200
19208
19210
19324
19333
19348
19353
19372
19401
19408
19410
19425
19443
19457
19483
19508
19512
19515
19529
19555
19609
19612
19650
19659
19671
19683
19684
19704
19710
19722
19730
19753
19758
19786
19811
19845
19854
19890
19896
19909
19940
19944
19965
19980
20001
20005
20010
20040
20067
20092
20104
20121
20152
20161
20212
20216
20220
20264
20266
20269
20282
20314
20322
20323
20328
20339
20371
20375
20400
20431
20494
20571
20603
20611
20705
20722
20747
20781
20783
20786
20815
20824
21111
22837
22841
22858
22899
23185
23195
23231
23265
23266
23285
23514
23623
[ 357 ]
17673
17688
17703
17713
17771
17826
17832
17849
17978
17987
18039
18118
18127
18281
18379
18386
18390
18411
18859
18863
18960
18977
19035
19120
19121
19126
19219
19285
19323
19449
19466
19734
19757
19860
19992
20002
20032
20076
20099
20101
20102
20263
20336
20396
20415
20424
20498
20528
20567
20570
20592
20608
20609
20623
20643
20661
20703
20721
20733
20739
20740
20742
20812
20874
22266
22340
22359
22374
22437
22481
22702
22855
22868
22964
23051
23061
23063
23090
23160
23166
23252
23284
23380
23389
23414
23420
23538
23544
23852
24019
24375
24953
25773
25844
25909
25920
26050
26267
[ 358 ]
12531
17679
17726
17813
17859
17991
18005
18044
18144
18201
18213
18219
18251
18263
18305
18328
18351
18361
18423
18432
18452
18470
18493
18845
19037
19123
19967
20034
20035
20066
20079
20080
20085
20091
20117
20120
20148
20149
20158
20279
20423
20425
20557
20707
20734
20926
21114
21135
22242
22268
22345
22401
22405
22620
22630
22635
22644
22704
22860
22890
22940
22970
23016
23072
23089
23091
23178
23325
23345
23347
23377
23400
23401
23403
23830
24031
24262
24771
25050
25225
25247
25398
25651
25686
25730
25735
25908
26008
26269
[ 359 ]
12339
12517
14299
17684
17689
17708
17719
17833
17839
17850
17910
17919
17938
17942
17947
17966
17972
18033
18092
18094
18111
18123
18131
18153
18243
18257
18269
18364
18365
18453
18490
18513
18844
18854
18865
18867
19113
20016
20033
20041
20087
20112
20275
20281
20558
20618
20693
20752
21077
21086
21108
21134
22213
22219
22244
22318
22320
22327
22369
22396
22465
22540
22556
22559
22570
22633
22848
23327
23373
23381
23417
23826
23879
23996
24230
24314
24327
24379
24466
24544
24719
24726
24743
24769
24798
24871
24941
25021
25048
25062
25116
25119
25172
25316
25655
25665
25806
25813
25829
25910
26270
[ 360 ]
12241
17711
17864
17939
17964
18216
18270
18282
18343
18393
18396
18477
18506
18507
20273
20694
20863
20895
20897
20925
20960
21038
21051
21133
22182
22276
22299
22336
22491
22512
22529
22606
22660
22945
22988
23379
23405
23412
23954
24018
24340
24348
24398
24752
24784
24786
24806
24863
24870
24938
24984
24993
25007
25058
25208
25239
25343
25388
25473
25692
25759
26086
26124
26188
26208
26370
26427
26661
26781
26786
[ 361 ]
2084
12229
12233
14292
17912
17925
18104
18154
18331
18474
18476
20886
20888
21093
21173
21179
22162
22167
22200
22203
22252
22304
22365
22431
22484
22502
23387
23854
23931
23963
23969
24004
24056
24321
24347
24489
24490
24681
24686
24711
24750
24964
25122
25161
25246
25628
26329
26656
26706
[ 362 ]
1990
2017
2029
2080
14295
18193
18238
18472
21042
21167
21205
22288
22297
22298
22486
24089
24309
24320
24341
24391
24488
24491
24985
25201
25693
26053
26126
26304
26349
26392
[ 363 ]
1635
1657
1718
1740
2007
2039
2070
2074
2075
12328
17874
22184
22193
24344
24591
24802
24916
[ 364 ]
1551
1588
1631
1646
1698
1702
1715
1725
1739
1761
1866
1936
2040
2066
2083
2086
2113
2129
12211
13988
14175
14294
16366
16372
17700
17869
26939
[ 365 ]
1520
1584
1596
1602
1622
1661
1666
1694
1716
1722
1736
1824
1985
2003
2032
2035
2043
13938
16336
16456
18534
18552
18668
22105
24281
26810
26923
27882
[ 366 ]
1540
1580
1586
1601
1613
1683
1685
1744
1811
1846
1858
1871
1897
1984
1999
2008
2597
11803
13060
16342
16377
16432
18664
21572
22107
26809
26919
29740
[ 367 ]
1544
1556
1598
1619
1623
1693
1917
1929
1932
1969
1975
1977
6205
6866
10180
11674
11973
12774
13052
16215
16332
16376
16397
16404
17268
17321
17888
17890
18543
18548
18550
18830
21579
21760
21772
21974
21983
22135
27511
28171
28429
29597
[ 368 ]
423
499
954
1103
1531
1609
1792
1813
1853
2585
2587
4250
4252
5532
5572
5851
6013
6102
8362
9018
9597
10058
10210
10221
10259
10315
11203
11624
11631
11633
11735
11787
11968
12771
13047
13263
13389
13505
13665
14461
14812
15041
15060
15195
15332
15454
15586
15755
16188
16206
16375
16467
16650
17037
17090
17101
17130
17237
17248
17300
17329
17589
17593
17606
17651
17652
18537
21678
21700
21838
21926
21984
22006
22106
22119
27050
27527
27750
27954
28084
28105
28245
[ 369 ]
294
305
462
522
623
905
998
1124
1142
1201
1298
1374
1499
1532
1567
2738
3356
3677
5269
5344
5416
6155
6180
6186
6193
6220
6544
6616
6644
6714
6799
8168
8192
8196
8295
8296
8308
8338
8354
8397
8420
8446
8504
8552
8586
8634
8708
8930
8982
9010
9024
9026
9089
9101
9191
9767
9836
9879
10062
10156
10246
10249
11092
11652
11669
11700
11780
11847
11903
11937
12723
12752
12763
12838
13023
13027
13028
13121
13124
13127
13166
13419
13473
13868
14400
14751
14972
15387
15395
15539
15590
15667
15684
15747
16002
16008
16080
16096
16144
16211
16216
16217
16388
16431
16462
16833
17028
17172
17184
17186
17244
17256
17297
17309
17336
17338
17345
17356
17583
17876
18547
21286
21417
21420
21467
21471
21494
21507
21524
21526
21780
21893
21898
21904
21946
22035
27083
27093
27487
27714
28106
28166
28327
28411
28422
28823
28909
29095
29142
29173
29378
29435
29588
29741
29769
29797
29817
29845
29922
29943
29997
[ 370 ]
169
268
422
450
493
510
550
637
723
733
957
995
1158
1203
1205
1238
1771
1774
1787
2645
2732
3726
5544
5978
6091
6162
6566
6641
6652
6660
6670
6887
6907
6913
7237
7605
7838
7986
8030
8164
8215
8286
8307
8470
8484
8590
8594
8608
8617
8637
8650
8705
8817
8997
9042
9065
9145
9174
9180
9196
9217
9219
9233
9353
9429
9539
9782
9835
9863
9881
10086
10109
10154
10228
10485
10571
11183
11678
11685
11743
11756
11799
11808
11849
11869
11926
12640
12758
12759
12767
12849
12850
12859
12901
12962
12973
12988
13000
13007
13108
13139
13141
13221
13353
13443
13497
13619
14338
14557
14638
14753
14945
15044
15050
15082
15193
15298
15323
15382
15588
15606
15676
15757
15791
15797
15849
16019
16049
16116
16185
16193
16196
16238
16252
16317
16331
16370
16420
16436
16437
16638
16823
16830
16995
17093
17126
17164
17169
17191
17207
17233
17239
17258
17265
17281
17290
17310
17405
17421
17502
18717
21410
21425
21506
21535
21597
21600
21664
21686
21691
21695
21711
21773
21796
21827
21833
21916
21935
21947
21966
21995
27407
27432
27673
28025
28239
28308
28398
28420
28494
28690
28755
28939
28966
29034
29140
29481
29502
29532
29723
29777
29852
29854
29873
29876
29892
29920
29936
29975
[ 371 ]
197
324
415
451
458
459
466
472
498
536
549
588
725
735
901
965
997
1097
1113
1139
1211
1337
1338
1390
2761
3793
3838
4503
4590
5464
5505
5549
5601
5691
6181
6183
6209
6214
6522
6535
6619
6630
6640
6647
6863
6951
7102
7777
7878
8110
8191
8198
8229
8235
8248
8260
8266
8290
8339
8412
8413
8468
8471
8477
8551
8597
8631
8633
8648
8662
8697
8767
8784
8820
8882
8897
8908
9003
9006
9124
9161
9213
9283
9417
9833
9834
9986
10116
10123
10127
10130
10214
10330
10525
10912
11528
11692
11701
11872
11877
11878
11899
11912
12629
12642
12663
12696
12697
12698
12743
12755
12822
12830
12847
12916
13016
13040
13045
13106
13149
13188
13222
13350
13552
13574
13578
14449
14490
14655
14977
14984
14994
15035
15038
15134
15310
15351
15359
15576
15630
15644
15773
15787
16103
16143
16157
16189
16219
16330
16408
16430
16433
16953
17016
17080
17205
17209
17257
17267
17314
17339
17353
17358
17394
17595
21389
21433
21473
21521
21563
21654
21696
21794
21809
21811
21812
21896
21899
21956
22036
28168
28415
28425
28440
28877
29027
29038
29150
29351
29412
29420
29547
29604
29652
29691
29733
29810
29818
29907
29909
29937
[ 372 ]
260
274
377
442
452
490
545
592
755
873
953
1018
1081
1112
1135
1167
1212
2569
2778
2846
3239
3245
3748
3938
5076
5311
5894
6159
6163
6164
6462
6487
6491
6500
6516
6531
6549
6572
6635
7613
7755
7760
7805
8166
8225
8247
8272
8289
8293
8340
8393
8497
8565
8585
8638
8639
8654
8660
8672
8696
8764
8774
8779
8791
8830
8918
8921
8965
9000
9027
9050
9073
9096
9098
9115
9146
9189
9216
9239
9240
9253
9270
9448
9468
9635
9841
9889
9893
10114
10143
10169
10268
10585
10759
11158
11801
11876
12630
12703
12707
12711
12784
12886
13022
13274
13451
13581
13624
13674
13799
13817
14974
15127
15192
15237
15345
15362
15627
15675
15707
15712
15739
16007
16029
16072
16101
16195
16280
16283
16496
17058
17197
17202
17324
21398
21411
21596
21647
21719
21740
21753
21792
21872
21919
21937
27732
28075
28161
28334
28517
28718
29058
29125
29314
29465
29654
29713
29747
29768
29888
29955
29972
[ 373 ]
47
357
517
632
737
886
996
1017
1123
3009
6196
6305
6447
6450
6483
6485
6600
6603
6623
6679
6689
8201
8278
8486
8611
8630
8641
8653
8656
8657
8726
8768
8901
8983
9011
9187
9211
9251
9261
9469
9890
11250
12644
12731
12765
12872
12883
12913
13706
14933
14934
15079
15207
15230
15548
15659
15753
15765
15844
15973
16065
16093
16151
17183
21685
21880
21972
28214
28393
28412
29127
29505
29702
29750
29787
29790
29838
29877
[ 374 ]
700
909
1223
1331
2641
5668
6444
6457
6461
6508
6511
6537
6613
6615
6703
7018
7527
7763
8186
8273
8349
8439
8659
8664
8773
8900
8934
9029
9117
9173
9428
9493
12726
12735
16063
16071
17223
17420
21657
21734
28387
28401
29894
29962
[ 375 ]
43
706
1327
5184
6446
6512
6514
6548
6597
8355
8502
8665
9149
16141
21722
29665
[ 376 ]
6456
8756
8800
12675
21405
[ 377 ]
1310
5662
[ 385 ]
19359
20402
23144
23147
[ 386 ]
18924
18926
18939
18990
19062
19077
19175
19188
19191
19245
19256
19361
19368
19370
19388
19390
19402
19465
19782
19796
19800
19900
19903
20003
20070
20167
20175
20209
20291
20353
20365
20543
20807
22891
23073
23143
23150
23214
23233
23246
23247
23294
23317
23461
23526
23579
23613
23618
23643
23648
23687
23698
23709
23723
23748
25940
[ 387 ]
18408
18914
18945
18979
18987
18988
19003
19061
19064
19070
19080
19089
19141
19172
19174
19201
19233
19247
19255
19283
19331
19350
19365
19377
19381
19409
19432
19440
19446
19499
19548
19549
19602
19625
19627
19648
19649
19656
19662
19692
19737
19743
19748
19770
19771
19781
19787
19821
19826
19828
19867
19878
19881
19883
19885
19919
19928
19938
19939
19950
19961
19969
19978
19979
19984
19985
19993
19994
20008
20021
20048
20073
20168
20171
20172
20186
20190
20197
20200
20206
20207
20208
20215
20225
20228
20236
20240
20242
20251
20256
20292
20310
20316
20340
20355
20370
20398
20399
20525
20547
20613
20706
20771
20794
20819
22647
23052
23130
23177
23210
23237
23242
23264
23268
23276
23281
23351
23356
23437
23466
23473
23482
23517
23518
23527
23557
23564
23584
23593
23669
23686
23764
23783
23812
[ 388 ]
17667
17682
17746
17756
17765
17781
17827
17862
17999
18009
18031
18040
18046
18234
18370
18931
18933
18940
18958
19004
19033
19043
19046
19053
19054
19106
19116
19135
19178
19182
19193
19205
19213
19317
19328
19330
19367
19376
19379
19396
19427
19464
19476
19480
19582
19603
19622
19629
19666
19670
19674
19699
19712
19717
19765
19769
19836
19849
19868
19915
19917
19921
19934
19942
19943
19945
19946
19947
19952
19966
19977
19988
20006
20017
20027
20050
20052
20054
20057
20113
20147
20160
20201
20219
20221
20257
20262
20315
20349
20358
20361
20369
20379
20382
20386
20414
20509
20556
20565
20604
20640
20712
20729
20730
20741
20787
20789
20810
20814
20820
20834
20841
22384
22425
22872
22893
22894
22897
23045
23046
23095
23100
23119
23125
23128
23156
23172
23181
23200
23203
23208
23228
23251
23258
23259
23263
23270
23329
23395
23531
23540
23559
23637
23672
23731
23799
23800
24484
25786
25787
25847
26017
[ 389 ]
12536
17669
17680
17720
17728
17732
17735
17744
17785
17854
17974
18025
18029
18048
18059
18066
18117
18279
18337
18352
18454
18873
18878
19014
19047
19050
19063
19108
19127
19132
19347
19363
19429
19430
19462
19494
19498
19524
19578
19623
19798
19859
19865
19869
19887
19951
20022
20026
20029
20039
20055
20088
20146
20153
20157
20164
20188
20283
20465
20484
20555
20607
20622
20633
20679
20683
20696
20715
20736
20813
20823
20840
20866
20873
20979
22387
22408
22609
22626
22629
22650
22708
22798
22836
22859
22900
22942
23054
23077
23094
23101
23110
23116
23183
23194
23209
23261
23262
23348
23386
23421
23428
23516
23668
23693
25065
25162
25211
25498
25500
25644
25855
25874
26298
26487
26670
[ 390 ]
12504
17683
17693
17789
17796
17819
17863
17948
17952
17954
17971
17977
17979
17998
18000
18002
18054
18097
18119
18209
18235
18311
18335
18347
18357
18374
18394
18422
18446
18494
18526
18855
18860
18962
18972
18973
19870
20045
20115
20150
20274
20511
20587
20662
20751
20753
20762
20816
20880
20922
21161
22220
22236
22237
22293
22323
22328
22341
22346
22348
22370
22373
22380
22403
22411
22463
22511
22521
22551
22554
22568
22595
22625
22627
22645
22655
22675
22698
22722
22748
22764
22852
22856
22861
22864
22873
22910
22935
22974
23060
23369
23375
23390
23397
23418
23425
23462
23534
23809
23859
23957
23971
24021
24486
24655
24738
24851
24935
25073
25082
25159
25224
25229
25296
25300
25368
25371
25456
25576
25591
25619
25629
25637
25653
25682
25744
25753
25792
25811
25887
25931
25987
26066
26067
26085
26088
26111
26148
26170
26224
26396
26419
26489
26640
26662
26708
26767
[ 391 ]
2056
12397
16345
17692
17798
17821
17853
17861
17935
17959
17983
17994
18028
18049
18088
18147
18204
18210
18215
18220
18222
18227
18242
18258
18274
18375
18397
18409
18457
18473
18497
18841
18879
18881
18888
18964
19122
20031
20086
20095
20100
20131
20270
20442
20612
20644
20654
20665
20735
20764
20876
20887
20912
20923
20931
21060
21104
21120
21150
21152
22149
22177
22180
22196
22216
22262
22263
22271
22282
22290
22305
22315
22325
22330
22360
22371
22415
22426
22436
22508
22519
22526
22584
22616
22723
22808
22850
22865
22892
22961
23033
23043
23384
23408
23818
23845
23858
23885
23934
23997
24109
24127
24153
24220
24231
24306
24310
24318
24319
24370
24371
24394
24508
24590
24623
24727
24776
24787
24837
24864
24899
24919
25005
25063
25194
25202
25223
25379
25453
25474
25493
25585
25612
25614
25677
25701
25747
25760
25777
25797
25803
25848
25862
25870
25892
25901
25943
26087
26109
26114
26130
26225
26235
26288
26303
26363
26556
26665
26684
26685
[ 392 ]
2054
17662
17788
17799
17916
17936
17960
17973
18041
18098
18112
18116
18186
18199
18232
18247
18275
18353
18414
18496
18796
18843
20882
20905
20906
20914
20967
20984
21080
22150
22221
22254
22273
22302
22303
22421
22514
22527
22531
22585
22591
22594
22607
22882
22949
23009
23037
23076
23399
23535
23825
23867
23880
23897
23970
24006
24024
24037
24131
24145
24239
24246
24285
24296
24299
24308
24323
24342
24351
24376
24402
24501
24517
24520
24573
24579
24630
24656
24665
24730
24775
24781
24783
24840
24932
24986
25086
25117
25186
25198
25312
25378
25429
25583
25620
25664
25668
25694
25710
25761
25819
25854
25872
25888
25891
25895
25896
25980
26082
26099
26113
26123
26195
26261
26263
26289
26295
26306
26383
26401
26497
26524
26550
26572
26596
26645
26696
[ 393 ]
2063
12352
12402
14057
14059
14089
16352
17924
18096
18143
18237
18253
18277
18298
18303
18427
18795
18852
20878
20901
20920
20928
21005
21079
21159
21176
22194
22204
22214
22223
22267
22287
22296
22319
22343
22364
22438
22488
22823
23979
23981
24003
24033
24068
24086
24139
24160
24240
24272
24289
24356
24360
24363
24377
24381
24390
24473
24482
24498
24500
24634
24770
24860
24923
24978
24988
24996
25016
25259
25332
25622
25741
25823
25861
26186
26227
26394
26450
26486
26537
26554
26632
26633
26650
26654
26655
[ 394 ]
2015
2023
2036
2139
12340
14278
17656
17658
17663
17848
18110
18157
18226
18459
18809
20934
21083
22144
22190
22202
22227
22278
22504
23031
23889
23917
23919
23920
23938
23941
23967
24002
24015
24161
24251
24295
24326
24334
24337
24389
24419
24447
24480
24481
24502
24522
24531
24559
24673
24696
24731
24768
24874
24890
24912
24955
24976
25090
25108
25120
25124
25360
26131
26133
26190
26248
26308
26315
26366
26384
26399
26508
26581
26764
[ 395 ]
1708
1747
2012
2022
2026
2031
2042
2057
2079
2096
12486
13983
17922
18146
18162
18300
18528
18774
18790
23032
23087
23896
23962
24049
24261
24339
24345
24352
24421
24539
24653
24718
25001
25375
25972
26417
26495
26500
[ 396 ]
1554
1647
1653
1684
1687
1732
1750
1793
1809
1883
1884
2013
2037
2071
2072
2082
2125
14222
14239
16369
16451
17899
18099
18636
22125
22127
24051
24533
24596
26496
26635
[ 397 ]
1436
1523
1543
1562
1600
1608
1627
1629
1642
1648
1650
1663
1677
1709
1726
1817
1834
1974
1991
2004
2088
2100
12219
14226
14228
16390
18579
22114
22142
22143
24422
24677
24765
26811
26883
[ 398 ]
1467
1525
1536
1579
1605
1620
1686
1690
1706
1720
1752
1836
1865
1868
1875
1891
1921
1979
2010
2065
10255
12976
13842
14131
14665
16319
16374
16648
17328
18148
18538
18541
21834
21940
22005
22099
22100
26830
26933
26993
27020
27025
27501
27802
27896
29039
29381
29427
29615
[ 399 ]
1431
1433
1435
1439
1475
1477
1480
1549
1570
1575
1582
1594
1597
1662
1745
1791
1855
1915
1934
1971
1976
1978
2050
2620
3215
5982
5983
6628
8563
10056
11303
11354
11420
11791
11810
11842
11938
12087
12228
12455
12921
13053
13236
13424
13966
14135
14250
14480
14639
15288
15456
15463
15511
15522
16316
16380
16391
16405
16473
16958
18553
22126
22134
26807
26983
27046
27056
27077
27485
27489
27490
27499
27516
27828
29099
29667
29753
[ 400 ]
363
495
506
716
757
904
913
1270
1296
1482
1534
1545
1563
1607
1615
1717
1724
1762
1898
1959
1964
2049
3327
3688
4098
5019
5347
5417
5436
5968
5980
6100
6140
6709
6726
7987
8199
8474
8513
8514
8528
9730
9832
9898
10023
10069
10233
10247
10309
10324
10326
10480
11105
11174
11547
11630
11650
11653
11675
11767
11795
11796
11825
11832
11841
11844
11866
11889
11905
12955
12975
13076
13178
13234
13465
14289
14404
14475
14602
14793
15090
15280
15465
15655
15685
15745
15808
16134
16325
16381
16387
16401
16614
16835
16967
17189
17260
17289
17342
17365
17506
17575
17594
18578
21459
21672
21675
21702
21758
22029
22118
26868
26893
26984
26997
27045
27072
27107
27858
27875
27904
27932
28156
28605
28733
29063
29085
29336
29431
29474
29475
29561
29568
29586
29867
29928
[ 401 ]
284
292
473
563
1004
1035
1221
1345
1373
1392
1407
1546
1595
1612
1675
1902
1903
2041
2710
2754
3023
3073
3193
3207
3498
3510
3521
3671
3681
3736
3753
3802
3824
3850
4090
4146
4491
4548
5270
5287
5303
5307
5379
5466
5514
5543
5931
6027
6070
6090
6185
6570
6727
6922
7119
7224
7300
7369
8193
8219
8226
8392
8460
8479
8589
8595
9136
9148
9740
10039
10057
10265
10278
10340
10640
10785
10790
10896
11060
11061
11066
11165
11169
11251
11427
11484
11676
11779
11800
11817
11828
11921
12210
12661
12687
12882
12951
12986
12993
12994
13025
13030
13055
13064
13082
13083
13094
13122
13150
13179
13346
13387
13407
13447
13556
13557
13820
13834
14062
14403
14479
14526
14556
14685
14780
14798
14962
14983
14996
15052
15390
15393
15452
15537
15674
15677
15697
15727
15798
15817
16124
16197
16200
16210
16232
16278
16427
16434
16448
16466
16832
16973
17024
17076
17214
17230
17242
17245
17253
17279
17529
17533
17582
17602
21235
21446
21460
21465
21480
21556
21663
21881
21894
21911
21914
22059
22121
26824
27419
27426
27532
27555
27595
27825
27903
27988
28079
28271
28392
28423
28624
28754
28929
28997
29005
29015
29026
29088
29124
29130
29191
29210
29256
29362
29413
29416
29453
29459
29526
29563
29719
29721
29759
29791
29795
29814
29837
29913
29996
30000
[ 402 ]
257
276
278
283
302
338
410
419
487
492
528
541
553
554
557
729
740
908
1333
1341
1767
2646
2741
2805
3269
3524
3637
3690
3693
3729
3738
3795
3801
3805
3827
4147
4159
4169
4216
4246
4367
4532
4700
4705
4830
4877
4879
5370
5390
5501
5502
5558
5561
5977
5986
6011
6045
6046
6129
6156
6157
6158
6169
6426
6467
6605
6645
6669
6696
6699
6724
6737
6755
6770
6773
6790
6918
6979
7121
7160
7600
7736
7998
8130
8135
8173
8188
8237
8241
8251
8288
8379
8404
8405
8416
8424
8427
8433
8452
8482
8515
8584
8587
8598
8602
8605
8655
8685
8688
8703
8782
8785
8792
9085
9100
9103
9190
9198
9210
9223
9416
9774
9792
9859
9958
9979
10049
10115
10166
10200
10206
10208
10225
10229
10230
10243
10257
10652
10990
11421
11455
11468
11641
11643
11682
11702
11738
11745
11764
11775
11781
11794
11819
11875
11917
11947
11950
12618
12760
12805
12837
12880
12910
12915
12940
12950
12974
13009
13032
13115
13185
13198
13445
13449
13461
13480
13507
13535
13661
13719
14495
14544
14554
14769
14865
14891
14910
14911
14920
15011
15057
15058
15073
15084
15201
15211
15265
15346
15445
15455
15457
15631
15635
15654
15665
15806
15846
15865
15920
15957
16010
16031
16036
16073
16158
16183
16207
16220
16235
16255
16395
16463
16502
16717
16935
17059
17087
17096
17175
17180
17227
17252
17275
17299
17304
17315
17349
17361
17437
17483
17574
21295
21321
21594
21627
21673
21708
21732
21766
21775
21782
21816
21884
21908
21949
21990
22026
27335
27395
27402
27430
27480
27558
27572
28145
28152
28163
28238
28272
28296
28336
28542
28564
28596
28828
28898
28915
28957
28962
28976
29030
29052
29188
29209
29460
29462
29495
29498
29521
29540
29549
29595
29609
29616
29666
29728
29788
29916
29934
29966
29990
29993
[ 403 ]
33
45
336
348
421
426
449
477
485
486
534
638
703
759
915
938
942
1001
1125
1138
1215
1220
1250
1334
2643
2673
2744
2781
3029
3077
3304
3321
3646
3649
3676
3694
3758
3794
3959
4033
4076
4212
4213
4344
4820
4983
4999
5280
5385
5391
5431
5547
5582
5710
6044
6138
6150
6219
6463
6540
6611
6624
6688
6749
6778
7228
7351
7601
7825
7881
7996
8074
8115
8126
8144
8165
8175
8177
8200
8211
8265
8380
8434
8445
8453
8462
8507
8536
8547
8601
8618
8636
8644
8668
8789
8822
8853
8933
8944
8976
9151
9183
9201
9248
9268
9355
9410
9419
9492
9639
9794
9796
9851
10119
10133
10198
10253
10273
10442
10823
11118
11160
11247
11410
11441
11578
11677
11765
11766
11770
11848
12631
12684
12685
12699
12727
12864
12952
12956
13006
13042
13084
13129
13151
13170
13220
13267
13337
13372
13462
13543
13559
13567
13571
13633
13724
13819
13867
14066
14439
14489
14549
14593
14605
14615
14790
14847
14876
14890
14932
14979
14980
14986
15047
15096
15370
15384
15400
15535
15581
15585
15678
15701
15742
15772
15793
15809
15814
15827
15855
15966
15967
16015
16060
16113
16118
16133
16142
16184
16226
16227
16276
16314
16438
16501
16640
16817
17020
17048
17065
17171
17178
17181
17198
17274
17295
17375
17522
17550
17607
21392
21464
21595
21598
21625
21630
21648
21668
21683
21704
21784
21823
21839
21843
21846
21873
21877
21900
21902
21950
21979
22025
27396
27560
27624
28014
28107
28251
28285
28436
28548
28592
28661
28679
28818
28958
29003
29004
29129
29164
29165
29181
29186
29196
29349
29350
29373
29473
29507
29620
29686
29705
29722
29730
29732
29779
29781
29793
29830
29842
29857
29883
29908
29923
29991
29992
[ 404 ]
250
271
401
540
587
593
613
633
707
709
727
916
930
934
1106
1150
1316
1322
2785
2797
3224
3439
3742
3966
4115
4310
4505
4833
5002
5250
5397
5517
5592
5607
5941
6178
6297
6355
6451
6473
6510
6562
6573
6627
6664
6691
6705
6768
6833
6837
6873
6898
6962
7067
7218
7536
7571
8170
8252
8256
8258
8277
8287
8356
8391
8473
8510
8603
8663
8666
8694
8838
8955
8988
9020
9060
9088
9111
9160
9172
9212
9235
9284
9291
9327
9328
9376
9552
9607
9743
9770
9780
9787
9913
10041
10141
10242
10317
10343
10526
11431
11871
11874
12651
12659
12665
12691
12734
12738
12783
12793
12799
12813
12853
12876
12929
12933
12941
12989
13004
13075
13130
13132
13152
13173
13189
13192
13201
13238
13345
13382
13385
13470
13522
13696
14458
14531
14651
14757
14785
14941
14967
15065
15081
15267
15398
15476
15558
15698
15710
15716
15836
16041
16166
16177
16482
17063
17177
17203
17208
17247
17293
17298
17311
17347
17354
17381
17611
21497
21690
21723
21729
21735
21762
21800
21835
21864
21955
21960
21968
22008
22022
22057
27472
27606
27684
28015
28050
28115
28324
28637
28953
28963
29051
29054
29104
29294
29464
29482
29589
29611
29617
29635
29657
29685
29806
29816
29831
29882
29890
29897
29911
29915
29925
29927
29948
[ 405 ]
52
53
440
471
511
547
892
899
906
952
1053
1151
1325
1777
3099
3184
3218
3244
3747
4176
5253
5402
5583
6198
6248
6380
6424
6427
6478
6488
6489
6498
6503
6631
6634
6682
6712
7030
7704
8019
8101
8182
8218
8224
8461
8472
8543
8567
8622
8645
8699
8751
8915
9159
9164
9222
9260
9281
9282
9809
9842
9877
9880
9895
9900
10139
10142
10149
10698
10772
11797
12610
12634
12689
12709
12724
12725
12756
12781
12846
12873
12878
12887
12891
13057
13059
13073
13224
13702
13722
14405
14939
15080
15197
15666
15760
16082
16493
17206
17212
17301
17396
21409
21458
21751
21891
21931
21953
27704
28083
28098
28218
28267
28405
28413
28628
28647
28716
28947
29185
29302
29457
29529
29599
29634
29644
29727
29766
29872
29953
29987
[ 406 ]
405
434
439
571
701
726
741
758
1116
1188
1255
2817
2943
2968
3150
3841
4770
4869
5035
5154
5699
6088
6175
6470
6490
6520
6550
6650
6834
7033
7458
7639
7749
8114
8209
8365
8425
8455
8674
8698
8737
8759
8814
8821
8916
8964
9128
9137
9250
9870
9875
9884
9987
10113
10464
10590
11751
12679
12732
12806
12851
12885
13338
13468
13575
14017
15000
15582
15904
15960
22015
28076
28191
28219
28418
28437
29468
29630
29636
29682
29709
29749
29783
29809
29970
29980
[ 407 ]
435
518
565
702
6452
6496
6505
6525
6754
6957
7021
7753
8441
8549
8568
8629
8979
9118
10140
13604
13636
16736
21607
21659
21694
28231
28328
29467
29895
29977
[ 408 ]
1026
1043
3026
3172
6408
6448
6606
8716
10138
12601
12721
17608
29633
[ 409 ]
1039
1074
2836
5698
6528
9236
[ 410 ]
6392
29624
29632
[ 417 ]
19073
19399
19793
19886
20074
23454
23549
23561
23617
23635
23639
23684
23758
23765
23769
26014
[ 418 ]
19339
19360
19384
19439
19445
19460
19477
19486
19518
19522
19696
19783
19819
19833
19902
19904
19924
19953
19955
20011
20170
20185
20217
20231
20258
20265
20331
20405
20522
20535
20710
23064
23151
23168
23184
23198
23313
23316
23342
23357
23362
23363
23364
23367
23434
23472
23488
23492
23521
23550
23565
23568
23600
23607
23624
23638
23646
23649
23654
23661
23663
23678
23680
23691
23713
23715
23744
23756
23757
25994
[ 419 ]
17754
18908
18937
18989
19025
19030
19031
19042
19044
19045
19056
19074
19107
19117
19156
19176
19189
19241
19262
19296
19336
19338
19345
19373
19378
19382
19385
19389
19391
19404
19426
19433
19436
19442
19453
19482
19489
19516
19532
19560
19573
19581
19590
19591
19607
19611
19618
19660
19675
19681
19691
19745
19747
19761
19764
19773
19779
19812
19847
19894
19905
19913
19932
19936
19941
19957
19960
19983
19991
19995
20019
20056
20071
20075
20193
20196
20229
20238
20244
20245
20246
20289
20290
20345
20351
20356
20517
20523
20524
20548
20755
20793
20811
20828
20837
22617
23065
23140
23163
23190
23212
23217
23275
23295
23300
23323
23341
23355
23455
23501
23520
23542
23553
23556
23562
23566
23575
23580
23586
23594
23597
23641
23650
23652
23655
23670
23674
23705
23708
23724
23725
23730
23732
23735
23745
23766
23774
23784
23791
23793
23813
23814
23815
25216
25993
[ 420 ]
17666
17675
17758
17760
17783
17803
17951
18172
18403
18520
18906
18907
18976
19128
19221
19235
19294
19297
19300
19301
19325
19342
19344
19374
19424
19428
19435
19444
19470
19474
19523
19557
19615
19632
19634
19715
19739
19750
19763
19778
19789
19791
19827
19852
19855
19875
19877
19879
19891
19895
19906
19925
19926
19959
19982
19997
19998
20000
20012
20151
20163
20166
20198
20226
20227
20230
20259
20267
20285
20305
20306
20325
20326
20329
20364
20368
20376
20384
20388
20477
20497
20505
20541
20579
20637
20659
20667
20709
20727
20749
20759
20772
20775
20785
20791
20801
21028
22470
22600
22843
22896
23044
23069
23158
23167
23170
23174
23175
23201
23213
23238
23274
23290
23324
23326
23332
23339
23509
23513
23711
23752
23785
23804
23847
25248
25645
25801
25846
25907
25986
26004
26010
26022
26057
[ 421 ]
12502
17670
17764
17777
17782
18056
18064
18231
18260
18318
18448
18868
18919
18966
19110
19111
19115
19406
19484
19492
19580
19599
19851
19856
19857
19871
19990
20020
20089
20118
20138
20253
20317
20321
20433
20437
20462
20468
20479
20501
20519
20530
20568
20596
20615
20619
20621
20649
20660
20701
20714
20719
20724
20750
20770
20777
20825
20831
20857
21073
21157
22175
22385
22386
22422
22434
22456
22475
22555
22638
22641
22726
22733
22772
22842
22844
22908
22952
23019
23086
23092
23124
23173
23186
23187
23222
23260
23271
23282
23330
23378
23406
23419
23505
23545
23811
23832
23848
23932
24233
24883
24888
24900
24905
25047
25069
25243
25256
25413
25579
25617
25696
25807
25863
25871
25912
25914
25956
25988
25999
26002
26011
26052
26104
26214
26220
26222
26230
26268
26425
26442
26592
26688
26773
26791
[ 422 ]
12225
12232
17665
17723
17767
17795
17820
17932
17950
17995
18036
18042
18065
18068
18087
18089
18179
18218
18223
18240
18244
18299
18301
18348
18378
18384
18400
18483
18523
18770
18847
18870
18871
19133
19398
19858
19963
19996
20036
20043
20044
20049
20061
20125
20132
20155
20272
20277
20443
20480
20502
20506
20518
20563
20586
20614
20635
20646
20695
20725
20763
20844
20962
21074
21106
21126
21191
22169
22171
22226
22265
22289
22313
22334
22339
22347
22375
22413
22420
22480
22532
22566
22569
22581
22589
22613
22628
22643
22648
22656
22666
22673
22680
22686
22721
22724
22741
22771
22797
22847
22880
22886
22912
23062
23075
23081
23112
23115
23279
23432
23433
23536
23810
23835
23836
23863
23902
23928
24038
24039
24191
24358
24430
24438
24556
24657
24716
24833
24875
24885
25064
25087
25135
25167
25184
25235
25241
25277
25287
25292
25299
25353
25399
25416
25478
25531
25563
25594
25633
25638
25649
25656
25660
25669
25672
25673
25684
25689
25704
25785
25805
25858
25866
25869
25897
25900
25918
25921
25929
25945
25949
26000
26003
26058
26061
26071
26089
26171
26181
26221
26231
26247
26397
26444
26605
26647
26777
26794
26804
[ 423 ]
17659
17685
17800
17801
17824
17825
17997
18023
18077
18081
18105
18185
18202
18203
18206
18284
18292
18324
18333
18380
18443
18485
18492
18512
18521
18842
18861
18862
18880
19412
20037
20108
20133
20268
20440
20512
20627
20658
20836
20864
20875
20932
20977
21147
22146
22161
22168
22176
22186
22215
22238
22264
22270
22280
22295
22329
22356
22446
22453
22454
22468
22479
22510
22538
22547
22548
22558
22576
22580
22592
22652
22694
22703
22705
22731
22768
22791
22807
22849
22875
22876
22904
22905
22944
22955
22960
23008
23082
23382
23396
23422
23841
23869
23988
24007
24027
24028
24070
24221
24223
24235
24242
24292
24304
24354
24366
24367
24380
24405
24407
24411
24448
24465
24487
24519
24583
24599
24628
24660
24668
24678
24685
24725
24728
24729
24735
24745
24753
24756
24791
24797
24801
24805
24828
24866
24868
24872
24950
24954
24956
24968
24971
24981
24994
25035
25072
25095
25126
25137
25140
25181
25200
25203
25210
25218
25270
25271
25305
25306
25323
25357
25384
25401
25499
25551
25580
25652
25671
25688
25690
25727
25762
25789
25802
25815
25821
25822
25831
25841
25850
25889
25906
25923
25933
25937
25959
26054
26065
26070
26091
26115
26118
26158
26173
26210
26226
26229
26242
26271
26272
26290
26314
26346
26365
26398
26402
26406
26410
26428
26471
26490
26506
26513
26521
26526
26546
26548
26573
26691
26714
26722
26763
26774
26782
26789
[ 424 ]
12381
12535
12538
17654
17790
17817
17940
17962
17993
18007
18086
18134
18136
18246
18255
18256
18358
18385
18433
18434
18441
18447
18462
18491
18869
19861
20276
20859
20881
20909
20916
20976
21053
21078
21084
21130
21139
21141
21177
21198
22151
22179
22217
22249
22250
22269
22286
22316
22324
22333
22344
22351
22353
22358
22381
22416
22428
22448
22471
22497
22498
22507
22549
22575
22619
22634
22637
22777
22779
22863
22958
22967
23003
23012
23098
23372
23806
23808
23829
23834
23884
23888
23900
23956
23960
23961
23973
23977
24026
24142
24228
24273
24279
24288
24307
24328
24332
24346
24350
24353
24392
24401
24417
24420
24423
24457
24468
24509
24542
24553
24554
24575
24600
24620
24646
24652
24654
24679
24687
24691
24714
24722
24741
24757
24758
24763
24777
24794
24830
24834
24847
24855
24859
24867
24936
24969
24998
25003
25004
25031
25083
25099
25114
25121
25127
25146
25171
25176
25249
25283
25289
25318
25324
25390
25419
25421
25444
25446
25448
25489
25497
25547
25603
25643
25657
25706
25725
25729
25750
25752
25756
25770
25776
25784
25840
25843
25853
25867
25880
25916
26103
26105
26121
26139
26213
26246
26253
26262
26283
26287
26294
26299
26300
26326
26390
26393
26404
26429
26437
26448
26457
26469
26470
26510
26520
26533
26553
26609
26612
26617
26628
26648
26667
26675
26682
26698
26707
26710
26711
26712
26719
26725
26733
26755
[ 425 ]
2094
12308
16334
16341
16359
16368
17838
17901
17902
17933
18121
18152
18173
18288
18304
18464
18486
18527
18804
18805
18836
20868
20869
20891
21059
21061
21137
21144
21166
22165
22187
22192
22205
22206
22230
22300
22361
22395
22402
22492
22496
22503
22515
22523
22535
22541
22544
22565
22573
22869
22937
23013
23823
23911
23921
23922
23935
23943
23974
23987
24000
24013
24095
24107
24193
24215
24253
24283
24294
24302
24312
24324
24368
24369
24418
24428
24431
24441
24456
24471
24474
24477
24478
24479
24568
24574
24587
24589
24602
24619
24627
24633
24641
24642
24651
24683
24692
24703
24761
24762
24832
24849
24852
24910
24940
24957
24961
24962
25006
25113
25115
25187
25189
25197
25309
25377
25407
25409
25412
25464
25490
25494
25650
25675
25705
25758
25964
26075
26125
26198
26218
26249
26252
26257
26309
26373
26375
26464
26485
26562
26578
26593
26613
26642
26669
26704
26709
26724
26742
[ 426 ]
2027
2112
2114
12335
14046
14205
14209
17914
17926
18191
18195
18296
18302
18315
18417
18430
18461
20123
20945
20951
20973
21089
21175
21182
22154
22191
22225
22245
22311
22449
22466
22485
22537
22574
23819
23887
23892
23915
23937
23995
24001
24025
24045
24090
24103
24126
24135
24143
24144
24331
24338
24362
24393
24399
24409
24425
24429
24452
24470
24504
24537
24571
24581
24592
24593
24603
24617
24618
24639
24650
24695
24702
24713
24755
24816
24884
24896
24931
24943
24959
24990
25034
25131
25166
25219
25263
25370
25491
25588
25715
25968
25979
26127
26140
26146
26239
26282
26301
26342
26348
26355
26356
26359
26372
26400
26408
26443
26449
26460
26530
26606
26610
26634
26637
26643
26660
26757
26762
[ 427 ]
1982
2052
2058
2091
2108
2117
12366
14048
14078
18170
18272
18276
18283
18389
18418
18439
18504
18788
18818
18831
18853
21087
22201
22207
22505
22542
23895
23953
23955
24050
24054
24087
24282
24286
24315
24335
24434
24495
24496
24547
24566
24572
24594
24747
24754
24854
24929
26330
26347
26357
26451
26463
26498
26519
26534
26705
[ 428 ]
1465
1548
1553
1656
1759
1842
1938
1995
2020
2103
2119
2122
14042
14056
14113
16343
16386
18556
18806
22534
22543
23980
24053
24293
24433
24513
24514
25780
26622
[ 429 ]
1537
1542
1550
1560
1564
1578
1593
1599
1723
1916
1930
1954
1997
2016
2021
2038
2090
2121
2132
3351
9207
11079
12162
12437
14053
14116
16741
17878
17898
18656
18724
18816
18829
21221
22141
24570
25367
26826
26892
26897
26982
27015
27883
[ 430 ]
1558
1604
1645
1719
1881
1893
1913
2115
2595
3855
5444
11233
11261
11262
11291
11651
13103
13153
13157
13414
13415
14177
14249
15432
16389
16447
17553
17891
18582
18827
21680
22003
22130
24270
26815
26822
26823
26859
26920
26924
27051
27060
27090
27831
28996
29428
[ 431 ]
673
1469
1571
1611
1634
1678
1763
1806
1810
1819
1831
1876
1882
1899
1935
1980
2582
2591
2653
3937
9799
11107
11278
11439
11629
11672
11739
11816
11868
12855
13017
13339
13411
13509
14068
14174
14180
14252
14761
14810
15053
15297
15555
15633
15839
16301
16313
16323
16324
16611
16643
17238
17270
17286
17308
17454
17468
17500
17517
17578
18533
18545
18577
18791
21419
21671
21677
21682
21831
22045
22108
26819
26827
26828
26895
26916
26930
26932
26938
27043
27062
27074
27104
27503
27506
27583
27801
27946
28101
28780
29192
29567
29696
29999
[ 432 ]
618
814
1234
1268
1282
1317
1775
2742
2757
3699
3716
3755
4226
5094
5321
5368
5435
5482
5493
5559
5823
5829
5870
5932
5999
6105
6106
6694
6798
7259
8083
8242
8432
8491
8600
9301
9775
10007
10030
10092
10263
10638
10878
11170
11222
11409
11434
11445
11453
11486
11673
11681
11749
11788
11827
12083
12797
12985
13046
13050
13069
13208
13655
13825
13828
14455
14552
14673
14750
14755
14813
14923
15229
15232
15339
15369
15377
15378
15389
15421
15458
15477
15533
15648
16014
16062
16371
16468
16651
16745
16748
16831
17054
17148
17215
17383
17417
17507
17576
17596
17653
18531
18532
18544
18546
21358
21803
22034
22103
26808
26872
26917
26967
26992
26994
27044
27049
27096
27334
27484
27497
27535
27542
27586
27587
27815
27912
28040
28263
28265
28268
28326
28498
28589
28599
28820
29010
29061
29111
29249
29366
29576
[ 433 ]
337
388
556
572
574
1141
1242
1297
1306
1362
1440
1452
1471
1772
1955
1965
2005
2573
2575
2617
2624
2726
2739
2762
2824
2877
3212
3262
3298
3360
3644
3734
3749
3761
3958
4062
4150
4237
4267
4405
5015
5023
5337
5338
5376
5382
5386
5414
5440
5509
5522
5538
5646
5991
6035
6042
6082
6120
6131
6166
6182
6629
6779
6893
7049
7492
7493
7882
8263
8350
8359
8382
8406
8534
8535
8574
8583
8613
9199
9360
9431
9518
9657
9791
9897
9984
10003
10072
10158
10177
10182
10199
10224
10235
10237
10239
10331
10339
10434
10523
10549
10588
10677
10738
11042
11046
11181
11302
11430
11444
11522
11533
11571
11582
11596
11667
11668
11684
11695
11707
11909
12005
12751
12844
12858
12862
12909
12978
12980
13001
13095
13097
13111
13144
13155
13209
13216
13295
13365
13446
13450
13538
13540
13541
13812
13864
13872
13887
14474
14494
14519
14525
14555
14598
14612
14621
14670
14791
14811
14884
14897
14958
15042
15054
15200
15250
15256
15324
15343
15394
15431
15668
15706
15908
16081
16170
16190
16213
16258
16312
16326
16435
16440
16500
16503
16635
16637
16805
16834
16839
16893
16961
16978
17092
17102
17108
17136
17162
17167
17187
17229
17261
17264
17287
17302
17368
17471
17488
17509
17528
17554
17579
21239
21265
21279
21302
21424
21531
21564
21612
21614
21662
21741
21770
21790
21871
21938
21942
22009
22038
22115
26991
27031
27415
27429
27492
27495
27522
27528
27566
27591
27716
28071
28217
28269
28313
28325
28345
28473
28574
28579
28594
28597
28600
28662
28753
28782
28831
28852
28856
28961
29040
29148
29156
29410
29423
29437
29445
29461
29515
29629
29638
29677
29737
29778
29862
[ 434 ]
27
54
68
310
474
509
523
610
631
720
768
812
819
935
936
937
947
958
975
985
999
1007
1351
1618
1768
1820
2567
2637
2658
2671
2750
2896
3182
3236
3312
3316
3342
3354
3385
3388
3482
3486
3522
3640
3650
3670
3691
3719
3730
3757
3798
3852
3856
3944
3955
4032
4117
4222
4263
4268
4550
4690
5139
5218
5295
5310
5330
5357
5373
5459
5555
5636
5859
5896
5929
6086
6147
6192
6199
6212
6399
6441
6574
6655
6701
6704
6711
6717
6777
6815
6821
6832
6841
6848
6868
6896
6928
7047
7151
7173
7227
7271
7347
7484
7506
7538
7628
7640
7737
7828
7917
8003
8021
8038
8082
8163
8185
8366
8384
8408
8450
8490
8494
8518
8520
8522
8562
8592
8593
8643
8848
8856
8875
8904
8905
8966
9019
9080
9082
9205
9225
9258
9266
9363
9377
9406
9413
9443
9506
9608
9771
9795
9819
9837
9840
9878
9972
9982
9983
10055
10163
10194
10195
10204
10216
10219
10266
10295
10318
10328
10507
10519
10574
10595
10629
10811
10884
10895
10966
11122
11194
11473
11476
11498
11540
11609
11628
11646
11662
11686
11697
11712
11740
11783
11784
11792
11865
11888
11928
12604
12622
12656
12694
12737
12749
12777
12788
12798
12922
12925
12966
12972
13038
13048
13054
13061
13077
13078
13085
13086
13143
13203
13217
13246
13255
13356
13371
13373
13391
13435
13448
13504
13544
13548
13572
13576
13612
13677
13718
13866
13884
14433
14473
14649
14668
14781
14846
14886
14931
14944
14971
14978
14997
15049
15078
15092
15113
15185
15285
15295
15337
15373
15404
15415
15427
15469
15478
15608
15699
15718
15749
16079
16086
16112
16137
16145
16167
16222
16231
16257
16318
16410
16441
16474
16498
16902
16948
16971
16972
17002
17068
17127
17190
17241
17307
17369
17410
17436
17451
17584
21255
21266
21368
21369
21390
21397
21626
21639
21643
21746
21774
21825
21826
21829
21851
21866
21887
21929
22019
22020
27082
27329
27410
27601
27678
28024
28127
28131
28189
28318
28351
28358
28388
28434
28503
28554
28622
28638
28764
28819
28907
28931
28980
29023
29037
29043
29121
29213
29316
29343
29344
29372
29433
29500
29523
29537
29577
29612
29656
29672
29703
29751
29789
29805
29840
29858
29995
29998
[ 435 ]
286
362
376
521
525
663
670
686
691
724
730
968
1000
1003
1149
1169
1202
1217
1258
1265
1384
1515
1766
1957
2616
2629
2721
2767
2898
2920
2938
3057
3119
3126
3174
3200
3209
3214
3219
3272
3334
3350
3375
3480
3483
3508
3509
3514
3548
3672
3673
3701
3759
3768
3775
3791
3808
3813
3829
3835
3951
3960
4072
4161
4248
4249
4360
4460
4485
4587
4673
4689
4884
4970
5016
5137
5162
5163
5204
5297
5317
5387
5388
5393
5394
5399
5497
5531
5552
5599
5654
5987
5992
6165
6170
6383
6384
6532
6575
6581
6590
6716
6723
6792
6793
6880
6906
6909
7204
7248
7533
7602
7665
7708
7826
7835
7949
8069
8113
8123
8149
8172
8197
8220
8239
8267
8283
8291
8345
8352
8372
8378
8387
8390
8395
8400
8402
8417
8418
8435
8448
8449
8508
8558
8607
8702
8829
8833
8894
8898
8919
8924
8967
8972
9009
9012
9021
9058
9059
9099
9110
9116
9132
9188
9200
9203
9204
9214
9226
9263
9280
9332
9407
9445
9511
9555
9590
9592
9623
9797
9829
9856
9894
9901
9903
9919
9924
9988
10008
10031
10091
10131
10137
10207
10211
10236
10258
10287
10292
10335
10455
10528
10569
10580
10674
10711
10761
10766
10807
10882
10932
10949
10985
10986
11239
11275
11422
11471
11502
11621
11640
11708
11769
11774
11785
11873
11900
11901
11906
11908
11933
12623
12637
12639
12657
12680
12701
12714
12718
12744
12787
12877
12890
12902
12905
12911
12935
13018
13105
13114
13117
13241
13258
13366
13562
13582
13587
13623
13659
13684
13699
13779
13782
14347
14671
14745
14782
14800
14853
14902
14929
14930
14942
15016
15068
15106
15184
15294
15374
15385
15388
15397
15399
15411
15438
15460
15462
15549
15580
15587
15646
15728
15735
15754
15795
15802
15959
15992
16018
16088
16090
16135
16146
16156
16169
16181
16205
16264
16287
16311
16411
16445
16483
16612
16646
16814
16878
16951
16969
16988
16998
17006
17193
17204
17249
17262
17280
17312
17316
17326
17373
17485
17504
17572
17610
21606
21684
21767
21791
21876
21901
21978
22012
22013
22073
27385
27440
27467
27478
27483
27627
27677
27689
27713
27844
27850
27859
28027
28082
28097
28103
28108
28124
28359
28543
28547
28563
28577
28609
28617
28619
28653
28663
28676
28709
28714
28724
28851
28889
28916
28928
28949
29000
29024
29116
29141
29144
29162
29168
29183
29189
29232
29250
29257
29289
29340
29388
29446
29478
29539
29552
29600
29606
29651
29660
29706
29761
29763
29819
29828
29835
29844
29865
29898
29921
29926
29969
29978
29989
29994
[ 436 ]
265
269
318
393
429
526
564
732
756
767
927
940
946
1010
1064
1090
1093
1119
1134
1193
1194
1210
1227
1273
1304
1346
1371
1514
2625
2636
2647
2708
2763
2845
2965
3003
3022
3027
3033
3299
3411
3470
3667
3692
3721
3723
3743
3887
3950
3969
4235
4387
4776
4991
5006
5112
5281
5428
5621
5628
6171
6172
6188
6190
6300
6361
6469
6546
6592
6698
6707
6733
6958
7031
7183
7184
7564
7626
7638
7658
7709
7761
7793
7893
8024
8071
8179
8190
8222
8223
8231
8315
8357
8369
8371
8399
8464
8469
8493
8548
8649
8707
8772
8805
8855
8866
8885
8927
8947
8998
9072
9119
9144
9202
9221
9269
9271
9272
9287
9350
9361
9451
9546
9566
9867
9990
10082
10238
10267
10274
10384
10393
10529
10545
11054
11081
11834
11919
11923
12632
12705
12804
12810
12835
12861
13096
13107
13147
13202
13343
13392
13405
13433
13475
13481
13561
13586
13610
13629
13630
13638
13646
13776
13796
14616
14628
14921
14940
15034
15189
15204
15239
15240
15244
15328
15341
15353
15402
15405
15412
15448
15486
15653
15731
15741
15748
15911
15969
16021
16044
16077
16097
16125
16129
16762
16769
16770
17019
17170
17235
17282
17371
21273
21314
21415
21468
21484
21611
21624
21712
21742
21783
21867
21869
21910
21915
21930
21973
22084
27091
27597
28100
28125
28210
28223
28331
28399
28569
28631
28664
28687
28688
28715
28881
28888
28935
28968
29092
29305
29327
29374
29450
29511
29525
29605
29649
29659
29676
29690
29774
29775
29782
29786
29827
29866
29874
29885
29957
29959
29971
29973
29984
[ 437 ]
104
317
414
437
445
448
612
694
764
816
979
1048
1100
1108
1109
1129
1219
1307
2678
2830
3006
3045
3132
3152
3155
3226
3231
3238
3377
3652
3837
4137
4225
4231
4276
4816
4959
5129
5294
5585
5653
5834
6213
6232
6287
6318
6396
6445
6497
6519
6625
6678
6692
6741
6817
6831
7138
7585
7975
8100
8187
8212
8262
8373
8394
8458
8573
8640
8709
8749
8780
8941
9129
9141
9166
9279
9812
10291
10678
10710
10875
11051
11608
12609
12624
12643
12652
12681
12719
12836
12954
13140
13553
13695
13815
14496
14547
14618
14626
14840
14976
15040
15235
15273
15274
15352
15355
15408
15634
15696
15799
16109
16164
16495
17340
21501
21720
21733
21797
21807
21863
21874
21892
28063
28148
28419
28607
28667
28682
28884
29018
29243
29268
29318
29530
29543
29580
29618
29693
29724
29726
29743
29748
29776
29784
29823
29836
29884
29906
29950
29961
29963
[ 438 ]
366
396
489
566
698
1041
1067
1079
1131
1225
1387
2684
2986
3011
3114
3228
3961
4562
5047
5696
5892
6283
6352
6368
6378
6379
6404
6409
6429
6436
6495
6517
6601
6668
6884
7353
7570
8344
8732
8781
8893
8945
9054
9056
9147
9154
9858
9896
11245
12674
12733
12817
12824
12963
13603
13607
13635
14624
15762
15853
16176
17398
21275
21621
21701
21749
28316
28402
28417
28946
28952
29639
29715
29821
29886
29924
29945
[ 439 ]
144
252
343
836
1050
2929
2985
4997
5257
6311
6325
6420
6661
7550
8712
8818
9887
10892
12653
12702
12736
12815
12866
14619
21841
22075
28848
[ 440 ]
896
2680
3100
6449
6501
6673
6681
9156
27563
29053
29646
[ 441 ]
380
6366
12845
[ 449 ]
18986
19032
19067
23296
23304
23318
23445
23485
23522
23577
23588
23604
23632
23657
23690
23710
23760
23763
23781
23795
[ 450 ]
18985
19023
19069
19252
19601
19631
19688
19889
19976
20077
20084
20204
20237
20299
20407
20435
20540
20542
20549
20792
20798
20847
23141
23235
23291
23297
23301
23302
23311
23314
23435
23447
23448
23450
23451
23484
23487
23490
23499
23519
23524
23525
23528
23563
23567
23569
23587
23614
23621
23630
23671
23673
23695
23707
23718
23721
23738
23753
23754
23762
23772
23776
23778
23787
[ 451 ]
17775
18905
18915
18944
18954
18982
19052
19058
19071
19199
19236
19286
19364
19366
19422
19448
19450
19478
19485
19504
19509
19517
19525
19537
19575
19577
19596
19641
19716
19727
19740
19742
19766
19777
19795
19822
19824
19825
19829
19892
19899
19911
19931
19954
19975
19999
20169
20180
20181
20194
20241
20248
20294
20298
20302
20304
20307
20311
20343
20363
20367
20372
20380
20383
20401
20411
20413
20418
20474
20520
20537
20675
20795
20802
20830
23048
23067
23193
23204
23340
23358
23360
23439
23442
23443
23554
23555
23573
23605
23606
23616
23629
23634
23642
23653
23660
23664
23665
23667
23685
23702
23704
23722
23729
23746
23749
23755
23759
23780
23798
25230
26016
26021
26029
26036
[ 452 ]
17668
17773
17806
17830
17996
18887
18930
18961
18971
18974
19027
19048
19259
19292
19321
19335
19337
19341
19380
19383
19395
19416
19421
19454
19459
19461
19472
19497
19520
19587
19604
19654
19678
19744
19772
19794
19820
19831
19848
19872
19876
19880
19901
19930
19958
19964
19968
19974
20023
20059
20062
20136
20143
20234
20235
20255
20303
20309
20344
20362
20373
20403
20429
20482
20562
20605
20616
20620
20711
20769
20773
20803
20805
20826
20911
20919
21110
22332
22639
22769
23049
23053
23071
23113
23135
23189
23199
23206
23219
23272
23273
23286
23287
23288
23453
23456
23532
23595
23603
23694
23733
23801
23803
23817
25071
25098
25232
25320
25527
25732
25990
26009
26012
26023
26033
26040
26589
[ 453 ]
16350
17672
17676
17707
17729
17779
17802
17937
18067
18072
18192
18259
18310
18314
18413
18444
18981
19112
19295
19467
19471
19487
19496
19749
19792
19898
20009
20046
20094
20098
20114
20154
20156
20232
20412
20464
20490
20510
20514
20598
20629
20652
20666
20697
20698
20716
20989
21097
21119
21127
21148
22253
22274
22367
22636
22642
22678
22697
22751
22754
22814
22821
22826
22845
22846
22887
22903
22938
22941
22972
23047
23056
23070
23096
23123
23227
23349
23374
23402
23413
23431
23533
23552
23703
23716
23720
23742
23816
23851
23855
23871
23901
23933
23949
24248
24382
24879
24920
24967
25060
25067
25075
25101
25102
25139
25193
25222
25293
25298
25437
25506
25549
25600
25681
25731
25795
25799
25800
25808
25833
25886
25927
25952
26020
26024
26026
26027
26074
26116
26196
26313
26458
26462
26729
26769
26801
[ 454 ]
12513
12519
17677
17748
17762
17856
17857
17941
18045
18053
18071
18082
18083
18129
18139
18212
18224
18239
18241
18248
18280
18326
18340
18350
18376
18416
18424
18487
18840
18846
18856
18876
18975
19109
19114
19226
19862
20082
20436
20493
20573
20580
20585
20589
20590
20600
20601
20647
20650
20677
20686
20689
20833
20856
20884
20981
21006
21055
21064
21101
21105
21125
21145
22233
22239
22240
22307
22404
22430
22433
22469
22516
22552
22560
22596
22604
22612
22631
22654
22664
22667
22679
22695
22700
22717
22719
22773
22817
22820
22835
22839
22862
22913
22915
22917
22948
22951
22953
22957
22994
23023
23057
23059
23093
23104
23118
23269
23277
23416
23805
23824
23843
23844
23853
23861
23870
24022
24192
24232
24244
24249
24330
24403
24440
24507
24555
24645
24739
24746
24764
24810
24824
24829
24857
24904
25032
25042
25068
25093
25123
25173
25177
25207
25238
25250
25253
25258
25276
25291
25297
25303
25317
25334
25363
25397
25417
25435
25440
25455
25477
25496
25507
25517
25519
25524
25560
25562
25581
25595
25598
25632
25646
25685
25695
25699
25723
25734
25740
25772
25793
25796
25812
25814
25839
25845
25856
25865
25883
25930
25944
25953
25955
25969
25981
26007
26025
26063
26078
26092
26093
26098
26102
26106
26119
26120
26147
26149
26199
26215
26217
26240
26245
26266
26311
26344
26478
26580
26676
26683
26690
26693
26739
26752
26768
26803
[ 455 ]
12226
12238
12249
12326
12360
12525
16354
17784
17836
17845
17917
18051
18075
18080
18145
18230
18268
18297
18306
18334
18356
18360
18362
18366
18382
18405
18412
18445
18480
18484
18488
18499
18874
18875
19130
19933
20111
20446
20457
20670
20685
20942
20944
20969
21030
21033
21035
21052
21057
21100
21136
21143
21146
21154
21180
21188
21193
21195
22181
22291
22308
22314
22337
22372
22389
22409
22414
22444
22572
22577
22590
22597
22598
22603
22610
22653
22658
22685
22689
22718
22761
22780
22824
22829
22885
22954
22985
23040
23079
23085
23407
23820
23839
23862
23868
23876
23907
23940
23951
24020
24029
24030
24052
24098
24104
24128
24202
24226
24236
24237
24298
24329
24372
24395
24414
24493
24521
24532
24586
24598
24706
24709
24715
24723
24748
24749
24780
24823
24838
24842
24878
24895
24903
24944
24946
24972
24991
25051
25100
25104
25134
25136
25149
25175
25183
25199
25204
25206
25209
25220
25242
25257
25260
25325
25335
25339
25372
25395
25405
25408
25450
25463
25476
25484
25503
25525
25540
25542
25550
25552
25553
25554
25564
25568
25577
25596
25611
25621
25635
25640
25641
25648
25658
25666
25676
25680
25691
25738
25754
25768
25791
25810
25835
25836
25837
25842
25849
25878
25903
25904
25917
25947
25948
25950
25996
25998
26068
26069
26081
26094
26107
26110
26112
26165
26168
26174
26175
26177
26202
26212
26216
26243
26273
26292
26350
26411
26413
26499
26522
26542
26557
26582
26591
26599
26614
26680
26695
26701
26750
26771
26772
26776
26790
26798
[ 456 ]
2085
12262
12338
12342
12551
12552
14290
16358
16363
17843
17908
17955
18090
18128
18138
18254
18325
18346
18377
18437
18440
18500
18503
18516
18525
18793
20063
20278
20634
20664
20867
20883
20899
20904
20929
20950
20975
21000
21047
21076
21088
21117
21156
22148
22212
22224
22229
22258
22342
22355
22363
22379
22390
22439
22442
22489
22494
22520
22524
22525
22528
22536
22677
22692
22796
22906
22950
22978
22981
23001
23005
23038
23039
23822
23840
23865
23873
23912
23923
23927
23959
23976
23986
24014
24016
24062
24234
24245
24255
24263
24265
24284
24305
24311
24313
24322
24349
24365
24400
24408
24426
24432
24445
24451
24453
24461
24483
24485
24557
24567
24588
24608
24621
24622
24625
24637
24648
24658
24663
24664
24674
24682
24688
24699
24733
24751
24790
24809
24820
24821
24856
24891
24928
24939
24980
24999
25054
25085
25125
25143
25152
25160
25164
25168
25169
25180
25185
25244
25245
25251
25262
25272
25280
25302
25311
25314
25336
25338
25348
25354
25361
25364
25386
25394
25396
25404
25414
25492
25508
25512
25556
25582
25592
25605
25626
25678
25687
25697
25724
25737
25751
25824
25834
25860
25884
25960
25971
25975
26045
26151
26176
26187
26189
26194
26197
26204
26205
26206
26250
26274
26281
26286
26293
26316
26317
26318
26327
26328
26371
26376
26389
26403
26416
26430
26436
26447
26473
26476
26480
26501
26502
26503
26504
26518
26529
26644
26649
26672
26681
26718
26723
[ 457 ]
2046
2062
12327
12336
12380
12484
12509
14277
17791
17834
18140
18174
18182
18207
18290
18399
18425
18772
18813
18814
20902
20938
21070
21153
21189
21204
22147
22157
22178
22185
22251
22309
22350
22429
22501
22778
22986
23018
23860
23891
23936
23948
23990
24009
24081
24094
24105
24110
24117
24162
24190
24210
24252
24256
24257
24269
24271
24277
24287
24301
24333
24336
24355
24373
24378
24384
24386
24396
24410
24443
24444
24462
24463
24476
24505
24510
24530
24552
24629
24638
24667
24676
24697
24760
24778
24785
24843
24853
24887
24908
24926
24937
24947
24948
24949
24965
24970
24974
24987
24992
25013
25019
25023
25037
25074
25077
25080
25096
25109
25128
25129
25148
25153
25155
25158
25190
25261
25282
25347
25410
25415
25441
25443
25449
25480
25487
25488
25546
25587
25604
25610
25613
25667
25700
25703
25708
25748
25749
25783
25973
26122
26135
26136
26185
26191
26237
26251
26255
26296
26312
26319
26333
26340
26341
26351
26361
26367
26368
26377
26391
26407
26409
26415
26426
26474
26481
26536
26540
26549
26551
26561
26575
26601
26603
26608
26652
26657
26735
26785
26787
26788
[ 458 ]
12243
12354
12436
12532
14246
17661
17841
18286
18789
20879
20896
20900
20907
20936
20937
21185
21196
22160
22285
22476
22477
23011
23894
23898
23926
23930
23945
23982
23998
24008
24044
24059
24074
24096
24114
24122
24129
24266
24274
24303
24357
24374
24383
24387
24404
24413
24437
24442
24454
24467
24475
24497
24499
24512
24525
24534
24578
24597
24647
24671
24708
24773
24774
24800
24808
24930
24977
25039
25084
25138
25217
25340
25389
25661
25712
25766
25769
25966
25967
26046
26137
26232
26280
26320
26345
26362
26380
26395
26405
26452
26455
26456
26467
26468
26491
26571
26574
26598
26620
26624
26630
26638
26689
26720
26728
26753
[ 459 ]
2051
2055
2073
12264
12307
12313
14296
17927
18113
18287
18771
18808
18837
20890
20952
22197
23914
23946
23947
23965
24115
24195
24406
24494
24503
24543
24582
24613
24614
24640
24734
24766
24846
24880
24893
25076
26382
26703
27089
[ 460 ]
1649
1888
1940
1963
2068
2076
2081
2101
2124
12218
12350
13979
14060
14072
14170
14214
16454
22129
23925
23978
24046
24083
24125
24536
24585
24601
24694
24825
25036
25402
26492
26621
26869
27034
[ 461 ]
1437
1522
1566
1576
1621
1637
1728
1730
1741
1851
2006
2107
2128
2135
13070
13909
13911
13912
13980
13987
14102
14140
14224
14234
16400
17402
18108
18151
18169
18539
18560
18803
18828
22122
24528
24963
25009
26625
26805
26825
26835
26968
27582
27921
27950
27995
29411
[ 462 ]
1422
1478
1492
1655
1714
1860
1872
1885
1928
2134
2731
10375
10845
11260
11805
11818
11820
12220
12968
13051
13232
13233
13298
13965
14045
14065
14564
16282
16459
16636
16742
17045
17291
17511
17580
17650
18149
21363
21778
22041
24549
26806
26818
26833
26851
26900
26906
26911
26915
26928
26940
26952
27029
27047
27059
27071
27080
27103
27500
27938
[ 463 ]
505
581
1583
1673
1812
1896
1907
1981
2118
2138
3261
3610
4005
4390
5437
5442
5478
5952
5997
6006
6108
6134
7130
7789
9442
9764
10899
11103
11292
11347
11352
11599
11809
11812
11822
11823
11836
12979
13104
13351
13422
13690
14031
14058
14145
14182
14265
14454
14894
15292
15315
15807
15842
16085
16458
16738
16943
17276
17337
17649
18555
18651
21532
21681
21707
21883
21994
22116
22132
26814
26816
26820
26821
26837
26874
26879
26890
26899
26905
26936
26959
26960
26976
27032
27095
27365
27368
27630
27763
27820
28262
28652
28869
29108
29190
29244
29342
29436
29565
29566
29853
[ 464 ]
583
1315
1417
1434
1464
1721
1908
1942
1966
2589
3248
3280
3435
3638
3659
3739
3771
3778
3877
3893
4010
4109
4408
4785
4794
4885
4987
5005
5328
5332
5433
5484
5495
5541
5560
5639
5945
6005
6007
6021
6038
6039
6040
6066
6107
6139
6149
6151
6719
7106
7136
7604
8489
8795
8806
9446
9965
10248
10376
10783
11121
11182
11201
11548
11649
11750
11778
11907
11965
12569
12620
12959
12961
13228
13409
13453
13832
13839
13875
14238
14376
14398
14399
14476
14482
14483
14513
14583
14625
14859
14885
14893
15006
15029
15199
15203
15225
15251
15419
15422
15466
15929
16084
16114
16115
16254
16472
16615
16645
16740
16950
17104
17221
17288
17334
17427
17461
17512
17601
18661
18670
21234
21407
21416
21591
21840
22024
22131
22133
22140
26842
26858
26887
26908
26931
26934
26949
26958
26981
26998
27006
27013
27079
27092
27367
27371
27405
27422
27423
27465
27491
27545
27573
27580
27623
27758
27797
27829
27874
27878
27924
27927
27989
28090
28197
28250
28551
28601
28620
28621
28807
28812
28850
28853
28857
28873
28944
28993
29008
29035
29106
29126
29252
29434
29519
29573
29587
29664
29901
[ 465 ]
281
558
608
611
1269
1355
1500
1931
2610
2648
2654
2666
2706
3197
3266
3296
3310
3382
3419
3582
3668
3751
3772
3774
3796
3800
3817
3873
3935
3974
3975
4030
4077
4118
4142
4170
4270
4279
4283
4296
4343
4403
4461
4496
4696
4793
4899
5026
5103
5215
5381
5389
5424
5449
5496
5519
5540
5640
5835
5863
5962
5989
5994
6019
6041
6130
6161
6265
6710
6731
6905
6910
6921
6931
7091
7201
7210
7258
7491
7586
7606
7780
7832
7992
8233
8386
8409
8481
8495
8516
8544
8903
9130
9194
9197
9264
9265
9408
9421
9422
9489
9726
9727
9882
9940
9975
9977
10026
10035
10064
10167
10170
10183
10188
10202
10223
10241
10244
10269
10270
10344
10368
10372
10513
10537
10616
10627
10725
10734
10787
10824
11072
11093
11099
11110
11163
11195
11219
11257
11349
11483
11516
11531
11532
11534
11574
11597
11617
11647
11656
11734
11829
11835
11846
11857
11918
12161
12666
12740
12857
13024
13036
13079
13091
13120
13136
13165
13184
13215
13265
13278
13416
13512
13565
13643
13653
13675
13837
13852
13886
14006
14484
14504
14560
14610
14762
14773
14852
14867
14880
14948
14991
15046
15086
15112
15116
15159
15206
15290
15301
15335
15367
15414
15474
15480
15485
15510
15546
15550
15560
15561
15636
15679
15720
15788
15811
15906
16012
16107
16117
16171
16204
16230
16237
16275
16327
16328
16931
16955
17075
17081
17109
17110
17179
17192
17234
17236
17246
17296
17320
17348
17364
17469
17480
17525
17535
17545
18660
21466
21633
21737
21761
21913
21952
21975
22031
22046
22062
22098
22117
26866
26929
26965
26974
27002
27064
27066
27086
27097
27101
27361
27372
27379
27382
27391
27427
27434
27437
27482
27554
27599
27748
27824
27861
27941
28020
28112
28116
28126
28136
28195
28209
28254
28310
28341
28363
28366
28368
28416
28544
28604
28630
28717
28736
28750
28972
28995
29016
29068
29087
29146
29167
29204
29206
29227
29242
29247
29263
29369
29379
29407
29438
29451
29503
29601
29695
29758
29767
29802
29839
29843
29879
29941
29974
[ 466 ]
1
243
311
381
488
532
560
615
628
635
647
722
813
919
944
962
1166
1274
1289
1344
1350
2163
2570
2593
2607
2609
2614
2634
2687
2714
2740
2749
2794
2878
2885
3018
3115
3194
3230
3243
3329
3336
3346
3352
3374
3383
3400
3418
3477
3536
3631
3754
3766
3769
3784
3803
3816
3821
3857
3859
3881
3945
3952
4026
4035
4046
4047
4091
4092
4110
4196
4219
4254
4282
4286
4372
4392
4473
4487
4507
4572
4581
4596
4691
4704
4706
4815
4825
4835
4889
4906
4907
4962
4995
5013
5021
5097
5113
5371
5396
5405
5406
5410
5415
5472
5483
5500
5530
5545
5551
5554
5618
5760
5853
5889
5926
5933
6020
6034
6057
6077
6081
6116
6137
6142
6153
6215
6358
6385
6410
6481
6577
6596
6722
6725
6736
6782
6849
6859
6897
6983
7005
7118
7145
7168
7265
7314
7321
7358
7419
7603
7635
7713
7735
7819
7848
7879
7956
7997
8000
8016
8026
8043
8047
8118
8205
8253
8255
8370
8376
8377
8388
8396
8411
8431
8438
8457
8487
8498
8500
8541
8545
8554
8797
8809
8851
8922
8926
8937
8970
8987
9102
9345
9347
9398
9400
9444
9512
9560
9616
9784
9803
9927
9959
9961
9966
9976
9978
10016
10024
10081
10085
10098
10151
10178
10226
10251
10260
10271
10286
10297
10351
10390
10443
10484
10490
10562
10566
10577
10578
10607
10695
10697
10712
10789
10819
10847
10854
10913
10923
11038
11074
11075
11076
11249
11423
11433
11458
11489
11544
11551
11562
11565
11567
11579
11610
11612
11696
11752
11815
11843
11939
12619
12621
12662
12712
12717
12757
12779
12828
12874
12879
12896
12908
12983
13008
13011
13066
13092
13099
13110
13112
13168
13200
13210
13410
13427
13430
13438
13439
13483
13515
13545
13547
13573
13609
13662
13666
13807
13862
14411
14470
14485
14492
14497
14606
14609
14630
14653
14747
14752
14779
14796
14851
14863
14864
14872
14889
14915
14936
14937
14975
14988
14993
15019
15056
15097
15119
15202
15233
15248
15255
15283
15284
15299
15316
15383
15433
15444
15447
15453
15475
15490
15532
15553
15559
15567
15574
15723
15764
15786
15816
15866
15888
15961
15968
16089
16163
16198
16234
16243
16297
16464
16477
16490
16616
16634
16644
16852
16906
16985
17012
17041
17053
17100
17132
17150
17165
17182
17199
17218
17224
17346
17370
17378
17393
17400
17407
17418
17435
17449
17452
17459
17497
17514
17523
17559
17612
18561
18719
21285
21293
21307
21310
21312
21689
21718
21757
21824
21830
21868
21895
21922
21967
22050
22053
26986
26990
27036
27088
27343
27344
27346
27408
27412
27473
27477
27537
27550
27631
27943
28018
28023
28173
28200
28261
28273
28281
28297
28322
28354
28424
28522
28595
28625
28646
28731
28735
28747
28748
28930
28933
28956
28970
29041
29089
29096
29098
29134
29176
29199
29261
29286
29312
29401
29432
29527
29560
29581
29614
29668
29687
29694
29700
29720
29735
29771
29772
29780
29801
29849
29870
29982
[ 467 ]
249
251
280
384
413
542
552
585
620
625
634
640
666
690
754
920
949
969
1002
1045
1117
1120
1132
1189
1191
1206
1259
1294
1301
1312
1314
1323
1394
2568
2574
2579
2612
2669
2737
2743
2774
2826
2849
2908
2997
3133
3177
3205
3206
3222
3234
3237
3246
3259
3322
3402
3467
3497
3507
3626
3645
3647
3722
3728
3756
3811
3831
3839
3866
3922
3953
4043
4120
4228
4245
4253
4273
4329
4354
4363
4369
4411
4438
4510
4538
4549
4553
4693
4702
4872
4912
4929
4956
4975
5003
5031
5110
5115
5128
5323
5398
5401
5429
5595
5602
5658
5887
6043
6053
6059
6067
6187
6189
6218
6344
6351
6422
6534
6543
6582
6633
6636
6667
6676
6693
6695
6706
6713
6718
6721
6819
6871
6883
6888
6982
7133
7139
7143
7194
7272
7286
7535
7581
7584
7657
7661
7730
7790
7808
7865
7928
7955
7985
7991
8145
8157
8203
8204
8214
8234
8246
8261
8274
8347
8358
8509
8564
8681
8729
8802
8804
8807
8823
8852
8854
8881
8896
8899
8969
8996
9091
9131
9254
9342
9343
9490
9491
9507
9531
9540
9541
9553
9595
9739
9776
9789
9802
9828
9855
9857
9866
9885
9939
9945
10089
10121
10185
10186
10209
10212
10218
10240
10256
10280
10288
10293
10347
10383
10414
10475
10514
10573
10584
10684
10733
10747
10802
10812
10908
10927
10931
10937
10995
11145
11190
11193
11436
11570
11680
11757
11782
11850
11924
11925
12209
12612
12613
12615
12633
12660
12700
12728
12770
12843
12852
12865
12949
12970
13063
13074
13134
13142
13186
13204
13225
13226
13242
13250
13259
13262
13268
13341
13357
13379
13384
13421
13428
13437
13477
13479
13580
13594
13601
13613
13621
13622
13632
13692
13693
13707
13785
13885
14435
14456
14509
14553
14620
14623
14666
14768
14786
14794
14805
14887
14924
14935
14947
14953
14982
14987
15032
15072
15074
15246
15261
15263
15286
15312
15344
15376
15381
15410
15461
15554
15556
15652
15705
15730
15744
15766
15818
15909
15918
15947
15993
15994
16013
16028
16131
16148
16154
16212
16240
16263
16479
16491
16492
16836
16855
16954
16994
17069
17113
17114
17144
17211
17226
17228
17243
17294
17319
17327
17351
17357
17374
17416
17585
17603
18697
21298
21367
21443
21455
21476
21482
21613
21616
21628
21655
21813
21836
21859
21970
22033
22047
22085
27084
27085
27390
27588
27708
28022
28041
28081
28094
28146
28158
28164
28194
28205
28312
28344
28377
28382
28394
28403
28435
28479
28552
28560
28572
28576
28593
28598
28612
28642
28658
28689
28737
28759
28763
28768
28830
28921
28925
28936
28945
28979
29002
29056
29064
29081
29090
29158
29166
29182
29217
29234
29270
29273
29284
29297
29304
29311
29449
29466
29476
29548
29570
29608
29642
29645
29647
29697
29701
29736
29804
29808
29812
29826
29841
29850
29875
29887
29893
29919
[ 468 ]
50
168
259
267
291
398
402
420
443
481
551
584
627
697
795
874
885
895
945
1084
1118
1122
1237
1244
1254
1280
1281
1321
1388
1485
2565
2642
2651
2677
2713
2766
2780
2861
2900
2901
2944
2972
3032
3035
3065
3072
3103
3124
3125
3173
3186
3309
3333
3386
3389
3392
3410
3441
3484
3502
3636
3695
3700
3847
3861
3934
4152
4335
4371
4463
4483
4504
4714
4735
4829
4904
4972
5001
5020
5087
5121
5186
5227
5256
5291
5324
5506
5508
5606
5634
5644
5648
5667
5701
6227
6234
6237
6252
6260
6262
6267
6294
6370
6398
6416
6432
6434
6533
6621
6662
6671
6748
6787
6789
6823
6843
6865
6933
6944
7092
7131
7141
7162
7185
7202
7588
7670
7701
7746
7829
7843
7876
7877
7892
7921
8048
8060
8068
8089
8099
8254
8281
8346
8383
8389
8414
8447
8505
8521
8537
8646
8710
8727
8728
8775
8816
8831
8859
8938
8980
9134
9138
9140
9153
9167
9171
9249
9256
9346
9356
9411
9449
9514
9542
9601
9848
9874
9876
9915
9930
10148
10165
10173
10181
10190
10191
10196
10203
10279
10282
10289
10290
10294
10392
10396
10435
10467
10483
10546
10555
10558
10560
10563
10600
10615
10637
10935
10958
10973
11024
11059
11127
11229
11248
11446
11470
11481
11636
11660
11664
11880
11934
12597
12627
12628
12655
12676
12688
12730
12821
12834
12868
12926
12931
12938
12964
13003
13010
13034
13190
13349
13460
13471
13549
13588
13595
13628
13657
13797
14498
14505
14543
14548
14636
14784
14799
15036
15043
15093
15102
15266
15269
15275
15418
15470
15670
15708
15790
15800
15834
15854
15898
15902
15950
15965
15997
16039
16042
16067
16102
16120
16128
16221
16250
16274
16293
16476
16820
16884
16909
16949
17009
17011
17052
17078
17194
17222
17250
17343
17389
17399
17413
17562
21256
21263
21268
21445
21498
21500
21641
21652
21660
21665
21745
21755
21756
21759
21776
21799
21810
21856
21862
21959
21998
27373
28017
28038
28087
28236
28241
28298
28555
28611
28618
28683
28729
28730
28784
28849
28924
28950
28965
28983
29028
29055
29122
29123
29178
29203
29262
29264
29303
29470
29471
29501
29518
29593
29637
29653
29663
29674
29681
29707
29815
29899
29912
29929
29956
29985
[ 469 ]
178
469
568
601
711
766
832
967
1080
1089
1216
1246
1308
1332
2764
2838
2937
2947
2993
2994
3001
3050
3056
3058
3060
3092
3220
3303
3395
3406
3842
3894
4155
4330
4365
4368
4377
4516
4545
4555
4707
4727
4736
4799
4883
5012
5038
5060
5082
5118
5152
5277
5400
5504
5524
5657
5680
5695
5895
6036
6354
6356
6387
6397
6411
6418
6553
6557
6560
6565
6598
6818
6826
7066
7159
7582
7587
7675
7687
7699
7739
7767
7806
7857
7901
7990
8017
8129
8156
8195
8257
8485
8556
8686
8719
8793
8883
8892
8909
9143
9169
9484
9488
9534
9777
9793
9831
9849
10101
10124
10150
10192
10213
10583
10598
10706
10851
11052
11088
11495
11496
12616
12739
12776
12918
12942
13037
13148
13213
13218
13377
13394
13514
13554
13673
13681
13683
13777
13816
14418
14452
14466
14640
14802
15108
15222
15238
15347
15354
15406
15472
15557
15578
15702
15743
16016
16024
16132
16152
16294
16471
17220
17317
17558
21479
21620
21646
21653
21656
21752
21779
21793
21875
21925
22032
22060
27530
27562
27688
27697
28048
28414
28627
28645
28657
28660
28745
28969
29119
29149
29157
29159
29175
29293
29499
29592
29717
29762
29820
29833
29848
29861
29881
29889
29903
29935
29968
29979
29983
[ 470 ]
275
418
595
695
762
1049
1096
1104
1324
2829
2832
2835
2958
2971
2988
3013
3302
3475
4163
4589
4710
4758
4767
4818
4931
5670
5672
6258
6328
6333
6334
6345
6391
6413
6506
6622
6658
6675
6715
6757
7004
7017
7232
7266
7740
7839
7859
7976
8704
8717
8724
8755
8761
8799
8849
8939
8991
9108
9142
9549
10093
10146
10303
10527
10861
12591
12614
12617
12677
12720
12848
12869
13598
13728
14540
15542
16484
16494
21413
21422
21427
21623
21658
21744
27468
28196
28333
28723
28984
29323
29619
29683
29765
29785
29834
29863
29880
29891
29930
29960
29964
[ 471 ]
765
897
900
1114
2707
3083
3718
5259
5261
6264
6867
7075
7115
7567
8426
8758
9861
10097
10159
10222
13809
16025
16879
21384
21661
28643
29621
29640
29711
[ 472 ]
515
1054
2834
3021
5258
6259
6961
8713
9234
10705
[ 474 ]
84
6502
[ 481 ]
19455
20297
23315
23449
23546
23598
23608
23631
23647
23651
23771
23775
23777
23789
[ 482 ]
19173
19823
20286
20293
20296
20347
20848
23066
23145
23298
23307
23319
23365
23446
23491
23523
23529
23541
23590
23644
23658
23675
23676
23682
23699
23706
23728
23767
23786
23790
[ 483 ]
12495
17780
18922
18929
18949
18956
19076
19078
19332
19451
19475
19513
19647
19680
19686
19695
19741
19762
19774
19780
19788
19797
20183
20203
20205
20390
20391
20397
20406
20527
20699
20718
20728
20774
20797
20808
23138
23299
23346
23438
23440
23560
23570
23581
23582
23589
23612
23620
23628
23640
23666
23681
23697
23700
23701
23740
23743
23750
23751
23792
23802
25228
26034
[ 484 ]
12499
17721
17722
17747
17766
18383
18391
18917
18918
18923
18951
19039
19059
19375
19488
19493
19536
19677
19711
19914
20038
20051
20254
20260
20308
20313
20521
20529
20539
20576
20648
20700
20713
20731
20780
20827
20990
22435
22716
22818
23022
23196
23239
23303
23352
23489
23539
23571
23576
23591
23609
23692
23788
23833
25227
25231
25333
25465
25911
25928
26013
26031
26032
26038
26043
26784
[ 485 ]
12345
17774
17804
17846
18026
18057
18060
18321
18327
18330
18848
18978
19864
20042
20064
20130
20135
20189
20352
20421
20500
20577
20582
20588
20674
20692
20723
20778
20782
20806
20851
20917
22218
22400
22622
22623
22662
22674
22682
22755
22800
22813
22828
22831
22833
22851
22881
22895
22901
22971
23050
23211
23278
23353
23371
23398
23530
23712
23719
23734
23779
23807
23821
23828
24862
24876
25026
25041
25212
25215
25226
25237
25294
25362
25452
25482
25485
25510
25586
25788
25798
25827
25881
25938
25954
25958
25983
26041
26055
26064
26076
26077
26095
26144
26422
26616
26692
26796
[ 486 ]
12518
17786
17842
17949
17988
18038
18095
18229
18338
18344
18368
18883
19866
20065
20137
20410
20417
20422
20441
20447
20451
20504
20513
20515
20566
20625
20669
20678
20684
20702
20796
20889
20972
20991
21004
21008
21022
21049
21091
21092
21102
21116
21122
22198
22326
22394
22398
22417
22419
22567
22605
22624
22640
22646
22665
22670
22693
22701
22732
22739
22753
22765
22812
22822
22854
22926
22943
22946
22956
22962
22969
23080
23120
23159
23430
23543
23850
23856
23950
24216
24259
24611
24649
24799
24836
24973
25070
25106
25174
25214
25290
25295
25350
25428
25436
25439
25454
25467
25475
25502
25518
25535
25537
25545
25559
25570
25574
25590
25597
25625
25631
25642
25647
25794
25852
25868
25902
25932
25946
25985
26001
26047
26048
26056
26083
26084
26100
26134
26150
26152
26159
26160
26163
26203
26209
26385
26418
26446
26475
26588
26663
26677
26687
26793
26800
[ 487 ]
12239
12346
12347
12529
12530
16351
18037
18074
18076
18078
18091
18124
18177
18261
18291
18293
18332
18363
18419
18450
18481
18482
18489
18515
18849
18969
20105
20159
20444
20489
20581
20656
20663
20691
20860
20885
20910
20915
20935
20968
20985
20995
21015
21019
21037
21069
21124
21138
21158
21199
21200
21202
22208
22228
22243
22255
22349
22410
22427
22441
22452
22462
22474
22499
22509
22614
22618
22663
22687
22740
22743
22747
22749
22789
22792
22799
22877
22888
22911
22920
22947
22966
22980
22993
23002
23017
23099
23838
23842
23866
23875
23883
23952
23964
23989
23999
24111
24148
24194
24200
24211
24222
24254
24260
24264
24412
24460
24511
24518
24606
24636
24659
24680
24693
24742
24817
24819
24831
24835
24841
24873
24877
24897
24951
24979
24983
25056
25057
25094
25133
25165
25178
25196
25267
25273
25274
25331
25342
25380
25381
25418
25426
25445
25451
25481
25504
25529
25533
25541
25566
25589
25627
25630
25636
25670
25771
25851
25859
25882
25890
25962
26044
26108
26128
26142
26145
26169
26228
26238
26324
26353
26421
26461
26477
26528
26579
26602
26615
26671
26678
26686
26694
26734
26760
26761
26780
26799
[ 488 ]
12234
12235
12258
12522
12526
17822
17851
17905
18043
18058
18084
18122
18141
18183
18245
18295
18307
18415
18463
20122
20913
20939
20947
20948
20974
21002
21036
21044
21065
21142
21149
21160
21169
21187
22153
22235
22259
22321
22331
22335
22406
22423
22443
22445
22451
22455
22461
22467
22611
22709
22710
22713
22853
22870
22907
22932
22973
22982
23006
23078
23831
23985
23994
24017
24040
24061
24073
24097
24112
24133
24217
24278
24316
24361
24364
24424
24450
24459
24472
24576
24609
24624
24712
24732
24736
24759
24779
24812
24814
24827
24861
24869
24902
24907
24915
24918
24921
24958
25000
25030
25044
25103
25145
25150
25154
25156
25182
25195
25264
25268
25269
25275
25284
25330
25341
25344
25346
25366
25392
25406
25516
25543
25548
25571
25573
25593
25606
25615
25698
25713
25722
25726
25775
25820
25825
25828
25838
25873
25894
25899
25922
25926
25961
25965
26051
26132
26153
26154
26164
26182
26183
26223
26241
26256
26260
26275
26297
26323
26352
26381
26386
26412
26414
26432
26438
26441
26465
26466
26472
26484
26511
26525
26527
26538
26539
26552
26576
26600
26604
26618
26699
26721
26737
26738
26740
26741
26797
[ 489 ]
2061
2064
12244
12261
17787
17793
17797
18176
18184
18225
18265
18401
18438
18469
18471
18514
18517
20448
20456
20933
20940
20953
20963
21021
21041
21082
21164
21165
21194
22222
22231
22247
22354
22357
22376
22407
22457
22506
22533
22672
22737
23383
23864
23878
23924
23944
23972
23983
24063
24064
24065
24093
24106
24119
24120
24121
24124
24132
24214
24492
24515
24607
24635
24644
24689
24690
24698
24704
24705
24721
24737
24782
24792
24865
24881
24882
24909
24917
24927
24989
24995
24997
25002
25010
25018
25024
25281
25301
25328
25359
25369
25374
25376
25383
25387
25442
25461
25483
25528
25538
25565
25567
25608
25714
25718
25733
25763
25942
25970
25982
25997
26073
26178
26201
26258
26259
26264
26305
26332
26335
26336
26374
26439
26531
26532
26544
26568
26569
26584
26765
26770
[ 490 ]
2030
2093
2102
12242
12246
12253
12254
12365
12370
12564
14044
14244
14293
14297
18349
18420
18426
18822
20949
21020
21174
22159
22188
22393
22418
22545
23010
23893
23910
24010
24048
24057
24082
24102
24163
24297
24343
24427
24449
24458
24545
24595
24615
24631
24661
24662
24672
24675
24700
24710
24724
24767
24788
24848
24933
24966
25020
25028
25078
25079
25112
25308
25313
25345
25391
25575
25578
25757
25977
26062
26184
26285
26337
26360
26364
26369
26379
26388
26482
26512
26541
26559
26639
26697
26713
26715
26717
26731
26783
[ 491 ]
1541
1652
1889
2028
2059
2111
2120
2136
12216
12351
12487
12562
14198
14201
14204
14245
17894
17931
18200
18835
20894
21058
21183
21197
22170
22546
23913
23929
24012
24034
24084
24134
24201
24224
24250
24276
24317
24415
24524
24541
24550
24569
24717
24858
25014
25539
25659
26291
26483
26585
26626
26727
26747
[ 492 ]
1651
1986
1992
2095
12404
12488
14097
14141
14216
14229
14281
16333
16453
17877
17879
17929
22189
24042
24043
24055
24099
24164
25460
25976
26535
26716
27508
[ 493 ]
1539
1679
1886
11082
12082
12224
14021
14075
14200
14248
14262
14279
17903
24100
24560
25012
26754
26812
26853
26937
26966
26996
27494
27584
27873
27948
29439
[ 494 ]
1470
1538
1660
1830
1841
2109
2126
2127
2131
3355
3454
3558
5413
5488
5492
5570
5849
5884
5995
6004
11258
11290
11530
11683
12215
12223
12319
12414
12465
13510
13939
13971
14225
15327
16305
16452
16744
17106
17458
18643
18775
21214
21229
21362
22111
22123
22124
24538
26627
26836
26847
26850
26867
26877
26880
26889
26903
26907
26922
26926
26942
26999
27001
27026
27070
27471
27488
27507
27510
27759
27978
27987
28036
[ 495 ]
1442
1444
1449
1450
1466
1491
1517
1530
1625
1643
1789
1801
1805
1852
1859
1920
3353
3511
3533
3797
4009
4164
5423
5460
5477
5564
5855
5964
6080
6128
6862
9704
9970
10784
11196
11274
11425
11552
11590
11627
11648
11755
11830
12148
12706
12856
13002
13068
13126
13527
13827
13835
13896
13947
14052
14134
14139
14181
14236
14567
14571
14748
15205
15507
15524
15821
15884
16269
16373
16402
16743
16804
17143
17425
17565
17897
18542
18554
18751
18766
18832
21252
21948
22102
22113
26813
26817
26831
26838
26841
26848
26849
26863
26876
26886
26888
26896
26898
26946
26953
26954
26973
26975
26980
27016
27018
27024
27035
27037
27038
27042
27053
27054
27061
27065
27098
27102
27105
27461
27502
27625
27854
27881
27900
27964
28858
28910
28992
29193
29363
29364
29440
[ 496 ]
262
1121
1286
1358
1421
1441
1487
1488
1505
1797
1867
1874
2133
2592
2621
2758
2772
3235
3251
3263
3308
3359
3361
3364
3457
3535
3632
3641
3735
3792
3818
3865
3941
4004
4125
4180
4220
4272
4399
5234
5296
5312
5333
5342
5411
5432
5445
5453
5573
5830
5876
5947
6074
6087
6096
6103
6206
6702
6869
7220
7287
7311
7785
8401
9779
9824
9908
10175
10193
10345
10348
10377
10471
10473
10479
10567
10782
10786
10863
10948
11037
11204
11213
11279
11295
11353
11416
11437
11443
11448
11519
11524
11538
11546
11632
11720
11723
11724
11725
11776
11789
11845
11915
12078
12141
12160
12204
12464
12479
13098
13408
13425
13840
14007
14155
14167
14478
14502
14518
14527
14538
14563
14804
14827
14895
14899
14960
14973
15258
15296
15503
15751
15886
16272
16286
16422
16424
16716
16755
16882
16926
17195
17232
17263
17306
17332
17335
17363
17367
17406
17457
17493
17518
17534
17542
17551
17552
18649
21226
21676
21728
21888
26839
26846
26862
26884
26891
26894
26902
26950
26955
26956
26957
26988
27004
27005
27040
27048
27068
27099
27384
27417
27421
27450
27498
27519
27552
27575
27737
27752
27795
27798
27952
28069
28072
28120
28201
28342
28513
28520
28719
28806
28808
28905
28912
28927
29060
29066
29347
29392
29415
29456
29553
29859
29868
[ 497 ]
11
62
174
258
266
494
577
606
653
802
810
923
926
972
1046
1197
1284
1361
1495
2165
2571
2615
2618
2630
2670
2709
2851
2859
3120
3196
3282
3314
3328
3369
3372
3381
3384
3458
3505
3537
3608
3682
3685
3698
3760
3785
3799
3836
3845
3848
3928
3929
3949
3983
3992
4006
4068
4073
4191
4198
4224
4240
4345
4379
4445
4476
4594
4612
4792
4927
4990
5028
5199
5211
5235
5268
5293
5298
5302
5349
5354
5407
5427
5461
5498
5525
5548
5553
5562
5568
5645
5832
5860
5886
5899
5955
5971
6031
6056
6068
6072
6115
6124
6145
6225
6797
6850
6895
7120
7154
7215
7264
7282
7298
7330
7342
7350
7364
7580
7618
7629
7685
7792
7802
7899
8062
8104
8159
8243
8264
8280
8575
8777
9135
9182
9300
9373
9379
9405
9437
9532
9613
9629
9691
9763
9808
9902
9921
9923
9963
9968
10032
10037
10044
10134
10189
10217
10262
10277
10327
10349
10487
10495
10632
10646
10679
10681
10846
10894
11067
11069
11096
11108
11199
11361
11435
11442
11561
11566
11622
11663
11706
11715
11730
11762
11802
11806
11831
11839
11932
11941
11966
12094
12715
12854
12898
12953
12957
12958
12967
13026
13035
13154
13161
13163
13171
13182
13211
13227
13240
13269
13363
13386
13485
13488
13501
13503
13518
13529
13536
13648
13823
13992
14251
14346
14425
14440
14448
14460
14462
14508
14528
14561
14589
14607
14613
14654
14678
14756
14758
14763
14788
14792
14808
14959
14989
15063
15087
15091
15118
15140
15264
15271
15291
15302
15371
15375
15380
15420
15439
15471
15562
15577
15715
15729
15737
15831
15833
15877
15916
15928
15942
16035
16199
16617
16641
16647
16649
16803
16829
16911
16928
16952
16982
17014
17210
17284
17333
17372
17403
17422
17432
17460
17496
17526
17543
17546
17628
18626
18653
18741
18760
21230
21379
21447
21754
21821
21980
21996
22023
22030
22044
22049
22137
26840
26852
26875
26970
27017
27022
27052
27100
27347
27389
27392
27414
27418
27441
27443
27446
27493
27521
27533
27559
27576
27698
27746
27792
27821
27832
27955
27970
27986
27999
28029
28111
28140
28147
28170
28198
28284
28343
28348
28349
28353
28356
28371
28525
28586
28606
28678
28720
28721
28775
28902
28941
29012
29013
29021
29093
29187
29214
29276
29287
29335
29458
29479
29509
29538
29571
29738
29760
29796
29800
29813
29902
29940
29946
[ 498 ]
60
159
171
188
289
293
332
386
425
622
651
719
721
739
751
917
931
1006
1072
1159
1288
1352
1354
1375
1376
1378
1411
2588
2656
2728
2777
2782
2787
2821
2858
2867
2893
2902
3055
3081
3213
3265
3318
3339
3362
3404
3513
3525
3567
3622
3669
3680
3686
3689
3731
3779
3781
3826
3854
3905
3920
3931
3943
3948
3977
4085
4087
4093
4099
4153
4157
4168
4175
4179
4202
4203
4207
4208
4221
4227
4256
4260
4271
4280
4281
4342
4352
4398
4409
4557
4584
4614
4688
4789
4855
4873
4905
4969
4976
5157
5167
5195
5219
5286
5290
5325
5335
5420
5450
5454
5499
5516
5550
5557
5565
5567
5580
5598
5600
5626
5632
5940
5954
5957
5958
5981
5984
5990
6026
6050
6079
6083
6122
6135
6168
6176
6332
6438
6578
6735
6743
6791
6795
6796
6830
6855
6870
6894
6927
6936
6963
7086
7117
7161
7191
7197
7206
7216
7217
7221
7267
7275
7301
7303
7308
7341
7372
7560
7632
7660
7664
7703
7734
7770
7800
7827
7970
7973
8044
8073
8148
8270
8351
8375
8407
8443
8476
8798
9076
9090
9152
9192
9276
9277
9278
9304
9306
9351
9354
9357
9367
9382
9536
9538
9585
9626
9690
9702
9707
9717
9749
9768
9807
9845
9917
9929
9955
9962
10099
10155
10205
10232
10250
10334
10354
10366
10391
10394
10398
10481
10532
10554
10572
10575
10576
10604
10610
10628
10665
10682
10736
10771
10840
10865
10885
10901
10984
11062
11125
11129
11137
11226
11252
11351
11456
11457
11569
11688
11693
11705
11729
12060
12741
12773
12786
12826
12927
12969
12992
13033
13049
13090
13100
13125
13133
13169
13175
13195
13239
13277
13444
13467
13472
13524
13533
13584
13878
13888
14344
14379
14468
14500
14535
14542
14597
14656
14736
14777
14797
14907
14919
14955
15007
15062
15064
15098
15099
15188
15191
15247
15252
15318
15331
15356
15366
15391
15441
15647
15837
15885
15899
15900
15905
15945
15949
15958
15983
15998
15999
16023
16034
16038
16123
16179
16225
16249
16259
16416
16660
16758
16768
16778
16802
16807
16809
16811
16815
16826
16827
16837
16853
16927
16936
17004
17038
17067
17072
17082
17097
17128
17251
17278
17362
17401
17440
17491
17530
17556
17586
17598
17604
18586
21325
21326
21376
21400
21431
21462
21463
21768
21788
21814
21820
21845
21854
22054
22138
26844
26978
27331
27370
27386
27409
27413
27425
27455
27513
27517
27534
27539
27546
27553
27718
27731
27733
27738
27749
27826
27833
27838
28039
28068
28086
28096
28099
28151
28215
28243
28244
28247
28275
28276
28288
28360
28378
28385
28546
28590
28692
28727
28734
28758
28776
28789
28864
28932
29020
29044
29070
29074
29086
29139
29145
29152
29171
29235
29236
29237
29258
29267
29285
29409
29421
29454
29472
29516
29551
29591
29673
29692
29871
29910
29918
29939
29952
29981
[ 499 ]
48
272
567
626
648
649
689
713
799
950
959
978
1076
1091
1146
1240
1383
1510
1828
2586
2622
2655
2665
2667
2718
2897
2915
3002
3014
3053
3061
3082
3176
3181
3189
3195
3201
3233
3315
3450
3479
3487
3696
3770
3823
3869
3871
3908
3967
3978
4061
4089
4094
4101
4111
4151
4275
4302
4333
4373
4389
4404
4453
4472
4501
4537
4663
4750
4781
4813
4819
4824
4828
4851
4878
4915
4935
4992
4996
5010
5083
5101
5119
5159
5161
5248
5262
5265
5306
5380
5566
5578
5586
5605
5609
5629
5693
5774
5785
5893
5898
5928
5930
5943
5985
6148
6208
6233
6285
6474
6591
6651
6665
6684
6738
6740
6772
6846
6852
6864
6885
6899
6925
6991
7010
7020
7032
7041
7042
7069
7126
7144
7195
7200
7207
7213
7262
7276
7283
7349
7352
7368
7385
7414
7583
7592
7706
7732
7756
7778
7822
7922
7947
7948
7954
8001
8004
8010
8012
8040
8058
8093
8103
8108
8124
8136
8143
8160
8162
8174
8194
8343
8499
8561
8576
8580
8738
8895
8923
8952
8954
8956
8986
8992
9092
9093
9133
9245
9309
9368
9369
9385
9397
9418
9533
9537
9570
9591
9614
9617
9638
9646
9651
9701
9720
9843
9860
9904
9936
10010
10063
10122
10129
10135
10136
10153
10261
10276
10300
10302
10325
10353
10399
10417
10497
10498
10505
10553
10589
10612
10648
10649
10658
10675
10716
10718
10727
10750
10850
10870
10943
10947
10987
11011
11063
11104
11175
11198
11344
11424
11450
11480
11490
11517
11714
11744
11885
11914
11916
11935
11936
11961
12212
12762
12791
12818
12889
12897
13131
13138
13159
13174
13206
13266
13393
13397
13406
13431
13476
13513
13568
13592
13611
13614
13631
13780
13784
13786
13788
13791
13838
14002
14358
14410
14643
14646
14662
14669
14749
14767
14775
14912
14927
14957
14963
14969
15003
15008
15024
15051
15076
15094
15182
15196
15277
15357
15763
15777
15812
15940
15976
15989
16001
16053
16059
16111
16172
16186
16209
16236
16247
16251
16273
16302
16304
16442
16735
16881
16964
16989
17007
17074
17085
17099
17103
17105
17121
17145
17217
17219
17350
17382
17388
17408
17439
17470
17489
17521
17524
17591
21250
21373
21610
21632
21636
21640
21787
21815
21999
22069
22090
22091
26861
27406
27444
27531
27613
27629
27747
28013
28169
28221
28234
28237
28299
28304
28309
28314
28317
28319
28352
28376
28380
28383
28386
28458
28583
28587
28608
28732
28738
28751
28865
28919
28971
28981
29047
29059
29065
29072
29197
29205
29212
29224
29280
29281
29417
29424
29452
29496
29497
29613
29658
29684
29698
29731
29764
29811
29965
[ 500 ]
32
49
57
58
112
290
597
692
696
746
933
992
1011
1034
1037
1051
1052
1070
1094
1127
1128
1168
1187
1239
1252
1257
1264
1267
1272
1363
1367
1382
1941
2682
2705
2734
2753
2793
2827
2848
2862
2911
2998
3019
3068
3085
3135
3136
3180
3211
3223
3278
3300
3393
3399
3440
3444
3464
3469
3565
3643
3707
3720
3727
3846
3860
3890
3954
3985
4052
4069
4184
4201
4314
4436
4484
4490
4551
4567
4586
4697
4823
4857
4870
4886
4900
4924
5008
5030
5072
5107
5111
5114
5166
5252
5255
5305
5372
5486
5507
5534
5575
5604
5611
5637
5660
5681
5700
5897
5996
6051
6112
6254
6273
6277
6327
6376
6393
6419
6567
6610
6686
6700
6742
6744
6756
6761
6762
6769
6811
6824
6838
6886
6904
6920
6929
6999
7008
7048
7055
7088
7125
7165
7278
7442
7477
7541
7561
7630
7650
7655
7678
7692
7712
7727
7758
7768
7779
7821
7823
7830
7943
7950
7965
7979
7984
8081
8098
8112
8176
8210
8361
8429
8456
8557
8695
8731
8750
8776
8778
8786
8790
8839
8891
8963
8993
9014
9077
9078
9083
9086
9087
9104
9139
9157
9179
9311
9403
9447
9452
9547
9558
9605
9765
9785
9815
10171
10389
10395
10410
10482
10488
10531
10534
10541
10559
10568
10581
10636
10650
10689
10730
10749
10792
10852
10902
10926
11053
11057
11128
11164
11465
11536
11575
11614
11665
11732
11861
12131
12595
12635
12670
12796
12803
12831
12860
12903
12928
12990
12995
12999
13260
13368
13378
13383
13452
13498
13502
13591
13634
14025
14382
14409
14463
14539
14642
14877
14913
14949
14995
15020
15021
15083
15088
15178
15226
15287
15350
15440
15551
15584
15709
15732
15828
15835
15917
15923
15971
16011
16022
16027
16048
16058
16099
16110
16130
16136
16140
16162
16208
16244
16271
16308
16828
16968
17017
17040
17147
17168
17384
18691
21412
21589
21618
21670
21674
21819
21822
21852
22021
22076
27557
27686
28047
28135
28165
28203
28315
28559
28565
28571
28648
28655
28680
28778
28837
28854
28926
28934
28975
28990
29172
29225
29322
29339
29353
29354
29469
29550
29572
29675
29757
29824
29851
29900
[ 501 ]
22
148
375
438
444
457
548
705
760
948
1065
1098
1099
1249
1305
1389
2627
2776
2963
2977
3088
3102
3134
3311
3391
4264
4332
4338
4349
4543
4560
4576
4588
4592
4597
4601
4669
4687
4733
4737
4755
4757
4772
4780
4854
4892
5052
5067
5127
5169
5173
5187
5242
5546
5655
5671
5856
6255
6274
6338
6381
6403
6412
6674
6708
6752
6785
6839
6842
6901
6914
7029
7099
7181
7260
7462
7464
7514
7520
7617
7672
7696
7748
7754
7764
7853
7989
8025
8054
8063
8070
8271
8368
8398
8444
8711
8762
8763
8828
8857
8902
8920
9232
9680
9714
9888
9899
10403
10524
10539
10641
10660
10703
10724
10806
10868
10871
10917
10919
10992
11041
11113
11572
11927
12603
12645
12654
12729
12778
13005
13012
13041
13308
13375
13398
13521
13551
13626
14413
14430
14601
14657
14672
14771
14922
15104
15210
15259
15272
15348
15361
15363
15409
15449
15851
15988
16051
16094
16202
16292
16481
16488
16704
17387
21274
21300
21306
21375
21399
21403
21581
21629
21645
21853
22048
22055
22072
28138
28139
28230
28270
28274
28323
28330
28346
28568
28570
28591
28633
28656
28874
28974
29241
29272
29274
29320
29357
29541
29641
29650
29708
29712
29896
29904
29914
[ 502 ]
374
395
769
817
951
976
1019
1092
1309
2683
2790
2923
2952
3004
3007
3108
3149
3151
3162
3185
3199
3593
4056
4229
4760
4769
4807
5044
5063
5096
5109
5170
5694
6197
6246
6339
6394
6786
6812
6943
7137
7219
7362
7366
7371
7513
7526
7543
7619
7741
7841
7974
8084
8151
8465
8503
8531
8572
8714
8733
8735
9170
10227
10444
10936
11071
11124
11132
11246
11346
11887
12678
12745
12833
12875
15069
15241
15245
15912
21371
27667
27703
28280
28292
28321
28632
28644
28710
29822
29931
29954
[ 503 ]
313
406
772
894
1349
2602
2931
3229
4040
4932
5054
5676
5702
6173
6291
6313
6323
6365
6405
6440
6561
7024
7381
7686
7750
7851
8754
9427
10486
10977
12710
12912
13400
14545
14874
21726
29444
[ 504 ]
468
2956
5130
5682
6286
6326
6431
6677
6965
8757
9883
13625
21608
[ 505 ]
1101
2833
[ 513 ]
23322
23619
23626
23627
23679
23683
23736
[ 514 ]
20013
20374
20526
20671
23436
23483
23558
23592
23656
23770
23782
23796
[ 515 ]
17733
19586
19897
19918
20141
20191
20287
20378
20536
20550
20552
20708
20720
20760
23205
23292
23312
23320
23452
23585
23602
23610
23622
23662
23739
23747
23773
26035
26659
[ 516 ]
17990
18920
19100
19299
19830
20140
20300
20475
20481
20584
20595
20676
20800
20850
20982
20988
21115
22588
23155
23215
23366
23459
23596
23615
23688
23717
23737
24952
25984
25991
26005
26018
26039
26233
[ 517 ]
12500
18055
18359
18372
18478
18882
19431
19775
19888
20060
20096
20129
20139
20377
20420
20427
20466
20471
20495
20499
20583
20591
20636
20668
20672
20978
21067
21151
22284
22322
22696
22711
22729
22770
22794
22838
22867
22884
22898
22916
23908
24225
24911
25025
25066
25285
25479
25561
25623
25639
25662
25736
25790
25817
25818
25832
25876
25879
25941
26030
26792
26802
[ 518 ]
12493
12497
12515
18073
18322
18323
18341
18498
18522
18779
20103
20124
20144
20439
20449
20450
20472
20488
20599
20632
20642
20645
20651
20655
20680
20681
20687
20855
20861
20956
21018
21040
21054
21072
21094
21096
21099
22277
22388
22399
22513
22553
22571
22649
22706
22727
22735
22736
22757
22774
22781
22784
22787
22788
22816
22879
22933
22977
23837
23846
23993
24558
24643
24818
24914
25029
25049
25234
25286
25315
25447
25469
25522
25523
25607
25609
25624
25679
25774
25830
25957
26090
26101
26664
26679
26700
26732
26766
26775
[ 519 ]
12382
12388
12514
12545
16340
17840
18032
18103
18130
18294
18309
18313
18466
18850
20453
20463
20628
20745
20870
20903
20927
20958
20961
20997
21043
21098
21113
21129
21170
21172
22152
22174
22317
22366
22377
22391
22412
22424
22432
22561
22562
22669
22681
22730
22734
22742
22763
22801
22819
22871
22874
22914
22927
22931
22939
22979
22996
23058
23857
23874
23903
24005
24136
24229
24243
24258
24268
24397
24435
24436
24535
24707
24813
24886
24898
24934
25027
25043
25046
25052
25053
25055
25111
25151
25163
25191
25240
25278
25288
25356
25358
25423
25458
25462
25466
25501
25505
25511
25515
25520
25526
25534
25557
25602
25634
25728
25742
25743
25755
25778
25893
25974
25989
26060
26072
26155
26157
26166
26276
26284
26321
26322
26325
26431
26445
26454
26459
26505
26547
26558
26565
26566
26666
26736
[ 520 ]
12259
12403
14298
16344
18079
18221
18267
18345
18402
18421
18467
18794
18815
20690
20858
20865
20946
21003
21027
21045
21048
21063
21075
21085
21132
21186
21201
22155
22156
22172
22378
22460
22464
22517
22522
22564
22659
22661
22712
22725
22728
22758
22923
22934
23015
23126
23872
24023
24159
24212
24290
24548
24612
24744
24789
24796
24845
24892
24901
25017
25059
25105
25107
25142
25170
25304
25310
25319
25321
25400
25411
25420
25424
25468
25486
25536
25569
25599
25601
25663
25702
25711
25764
25767
25826
26080
26097
26161
26167
26192
26193
26200
26234
26279
26310
26435
26563
26564
26619
26673
26674
26751
26795
[ 521 ]
12231
12236
12356
12405
12539
14047
14219
17906
18115
18155
18175
18181
18228
18289
18339
18342
18355
18392
18797
18823
18826
20862
20918
20943
20970
20986
20999
21013
21024
21031
21032
21081
21095
21163
21178
22164
22257
22312
23030
23916
23942
24113
24140
24146
24151
24156
24182
24186
24188
24204
24213
24227
24275
24385
24416
24469
24506
24523
24526
24561
24565
24610
24666
24669
24803
24804
24839
24913
24922
24925
24960
25015
25022
25038
25188
25307
25322
25349
25365
25427
25431
25470
25521
25745
25746
25779
25816
25963
26129
26138
26211
26302
26343
26378
26440
26479
26509
26516
26545
26555
26590
26636
26646
[ 522 ]
12247
12290
12329
12444
14165
14166
17904
18166
18792
18798
21050
22145
22487
22495
23036
23886
23890
24066
24072
24075
24149
24176
24198
24464
24527
24577
24807
24894
24942
24975
25147
25266
25329
25351
25385
25514
26254
26307
26338
26494
26514
26515
26595
26611
26726
26730
26758
[ 523 ]
2099
2104
12222
12315
12324
12361
13937
14111
14212
14213
14288
18285
18442
18810
20459
20898
21360
22963
22995
24047
24067
24077
24088
24280
24563
24604
24632
24720
25118
25765
26339
26586
26702
26756
[ 524 ]
1873
2014
2034
12349
13917
13953
14077
18165
18639
18640
21168
21207
21216
22210
24123
24171
24540
24546
26493
[ 525 ]
1418
1419
1849
1850
1914
2105
2110
12159
13923
13929
13961
13968
14079
14199
14207
14230
14240
14259
14268
16320
18163
21206
22990
24060
24670
26913
27023
27063
27577
28872
[ 526 ]
1402
1432
1460
1483
1616
1624
1862
1890
1905
1993
5817
5953
5974
10879
11454
12157
12285
13511
13936
13960
13998
14051
14067
14074
14136
14172
14191
14487
14565
14826
14866
15305
15822
16841
17050
18642
18655
18718
21212
21769
22097
26832
26912
26914
26927
26943
26961
26962
27094
27840
27862
27919
27926
27968
28816
[ 527 ]
69
503
1357
1416
1428
1438
1445
1473
1474
1481
1535
1585
1654
1758
1835
1887
1918
1924
1925
1927
1970
2000
2160
2660
2887
3345
3880
3964
4060
5581
5828
5917
5951
5979
6014
6016
6076
6207
7108
9575
9772
10373
11055
11415
11449
11541
12214
12919
13317
13490
13496
13970
13994
13995
14020
14122
14192
14241
14269
14477
14664
14674
14759
15320
15521
15781
16288
16922
17042
17139
17285
17355
17441
17619
18557
18641
18727
18740
18800
21219
21421
22110
22128
22294
26829
26882
26901
26904
26910
26945
26985
27021
27028
27033
27039
27058
27073
27078
27362
27394
27460
27462
27578
27581
27830
27909
27967
28199
28258
28772
28805
28922
29046
29069
29109
29194
29408
[ 528 ]
383
507
1156
1261
1290
1336
1360
1409
1484
1900
1910
1953
1972
2847
2853
3254
3267
3275
3306
3363
3434
3503
3564
3613
3623
3764
3788
3876
3895
3996
4071
4140
4209
4233
4517
4534
4662
4790
4887
5079
5081
5331
5362
5377
5479
5481
5489
5647
5797
5818
5871
5956
5993
5998
6017
6024
6052
6094
6099
6114
6119
6121
6141
7335
7338
7574
7961
8155
8546
9307
9516
9519
9530
9574
9609
9631
9937
10164
10215
10362
10440
10756
10881
11095
11157
11205
11216
11232
11237
11273
11305
11487
11553
11619
11623
11721
11777
11793
11833
11837
11882
11902
12015
12077
12147
12454
12456
12981
12982
12987
13230
13279
13301
13313
13319
13388
13403
13412
13489
13493
13725
13831
14137
14183
14342
14375
14402
14569
14590
14746
14806
14809
14926
14950
15179
15257
15322
15340
15526
15566
15711
15794
15840
15887
15970
16194
16465
16739
16756
16779
16808
16842
16856
16874
16877
16892
16903
16908
16924
16937
17071
17088
17117
17140
17159
17424
17450
17484
17540
17561
17577
18647
18658
18725
18738
18750
18782
21220
21365
21781
21785
22089
22109
26855
26860
26870
27055
27067
27081
27387
27388
27439
27454
27719
27768
27804
27807
27843
27847
27877
27930
28037
28064
28123
28253
28355
28585
28742
28769
28815
28870
28899
29014
29019
29083
29251
29292
29385
29389
29406
29425
29803
[ 529 ]
5
9
16
61
207
256
504
603
672
738
898
984
1262
1299
2157
2551
2572
2581
2623
2663
2693
2727
2755
2863
2864
2888
3118
3121
3284
3358
3366
3422
3433
3436
3451
3485
3494
3542
3552
3572
3574
3578
3580
3601
3604
3607
3617
3654
3656
3678
3706
3752
3763
3773
3810
3864
3868
3874
3888
3995
4074
4079
4084
4097
4103
4116
4165
4206
4258
4308
4439
4452
4683
4834
4913
5070
5122
5124
5177
5183
5210
5213
5249
5273
5285
5308
5315
5316
5422
5448
5588
5625
5833
5842
5850
5852
5904
5939
6033
6064
6073
6089
6143
6144
6203
7098
7112
7253
7273
7336
7359
7537
7562
7608
7612
7648
7888
7889
8020
8022
8023
8080
8106
8132
8533
8578
8689
8787
8942
9412
9526
9535
9561
9576
9579
9606
9656
9667
9696
9734
9735
9761
9798
9932
9943
10011
10025
10061
10197
10231
10304
10359
10400
10401
10427
10433
10447
10503
10504
10516
10518
10535
10550
10557
10613
10656
10676
10746
10788
10818
10930
10963
10971
10994
11083
11090
11098
11111
11117
11119
11187
11202
11211
11214
11298
11432
11474
11478
11549
11556
11583
11639
11719
11761
11807
11824
11826
11879
11884
12107
12561
12584
12769
12820
12829
12924
12977
13043
13087
13296
13300
13360
13402
13474
13495
13539
13851
13991
14000
14004
14153
14481
14486
14533
14537
14546
14550
14614
14633
14635
14681
14682
14735
14737
14742
14770
14818
14824
14854
14896
14908
15001
15004
15107
15162
15194
15209
15254
15307
15309
15325
15372
15436
15481
15534
15563
15570
15734
15944
15979
16261
16290
16461
16469
16475
16642
16813
16868
16960
16970
16983
16984
17051
17116
17149
17158
17409
17438
17448
17499
17519
17531
17537
17547
17563
17567
17600
18623
21232
21233
21237
21270
21311
21364
21642
21849
21860
21882
21890
21939
21997
22028
26909
26963
26995
27009
27014
27109
27120
27420
27424
27442
27464
27592
27870
28065
28128
28154
28246
28364
28381
28409
28421
28519
28533
28538
28626
28649
28726
28728
28756
28760
28813
28937
28964
29009
29077
29207
29306
29337
29422
29671
29792
[ 530 ]
172
175
382
594
624
639
664
693
828
847
924
925
932
974
1266
1300
1343
1393
1414
1511
1513
1829
1880
2355
2594
2596
2603
2626
2649
2697
2702
2704
2711
2843
2879
2899
2912
3066
3095
3128
3129
3210
3253
3273
3281
3319
3323
3398
3401
3420
3431
3448
3491
3506
3541
3544
3579
3616
3679
3767
3777
3783
3786
3787
3822
3853
3863
3870
3886
3918
3942
3956
3982
4055
4064
4082
4086
4105
4106
4114
4138
4141
4160
4186
4188
4210
4218
4223
4277
4316
4318
4351
4364
4376
4382
4391
4396
4400
4414
4434
4442
4448
4455
4495
4523
4606
4692
4695
4699
4742
4753
4764
4804
4814
4836
4881
4974
5009
5018
5089
5102
5123
5151
5160
5198
5231
5275
5278
5283
5289
5336
5360
5363
5392
5408
5451
5456
5474
5490
5617
5666
5669
5754
5801
5841
5902
5966
5970
6000
6022
6062
6104
6110
6113
6117
6179
6414
6564
6746
6800
6840
6847
6890
6919
7013
7064
7081
7116
7199
7234
7238
7249
7284
7292
7328
7334
7345
7402
7411
7434
7577
7610
7634
7646
7667
7715
7717
7733
7782
7783
7791
7804
7810
7869
7891
7907
7960
8011
8055
8072
8095
8105
8107
8116
8208
8238
8430
8519
8532
8560
8581
8682
8693
8832
8889
8906
8932
8949
8957
9002
9155
9158
9294
9310
9317
9404
9414
9500
9525
9554
9562
9567
9571
9582
9641
9645
9658
9661
9687
9708
9731
9766
9778
9805
9838
9973
10051
10076
10157
10160
10201
10254
10329
10336
10338
10346
10355
10385
10425
10432
10438
10441
10506
10512
10517
10686
10723
10739
10741
10742
10814
10877
10880
10916
10941
10950
10974
11023
11026
11027
11035
11070
11080
11106
11115
11152
11159
11172
11197
11464
11504
11521
11527
11537
11554
11559
11642
11727
11741
11851
11891
11948
11985
12009
12089
12669
12695
12713
12748
12780
12782
12888
13072
13156
13191
13334
13362
13434
13436
13442
13454
13459
13486
13508
13526
13534
13600
13608
13650
13676
13694
13720
13890
14001
14024
14392
14441
14450
14493
14520
14596
14617
14641
14648
14658
14789
14807
14878
14883
14888
14898
14943
14992
14999
15023
15026
15066
15067
15122
15145
15270
15282
15289
15334
15342
15424
15426
15656
15694
15733
15736
15740
15785
15801
15819
15823
15825
15852
15869
15903
15907
15919
15943
15955
15980
16000
16043
16055
16074
16155
16192
16266
16277
16279
16309
16310
16489
16506
16507
16653
16816
16883
16886
16887
16956
16987
16993
16999
17029
17032
17073
17094
17146
17174
17216
17266
17272
17404
17479
17495
17508
17513
17569
18663
18746
21247
21271
21280
21299
21372
21525
21651
21688
21805
22027
22042
22079
22083
26979
27333
27375
27398
27416
27435
27449
27453
27474
27504
27512
27526
27547
27561
27570
27620
27639
27656
27717
27803
27818
27852
27916
27940
28028
28035
28043
28051
28134
28211
28232
28259
28260
28283
28302
28357
28362
28369
28375
28455
28523
28541
28616
28665
28691
28712
28765
28779
28792
28897
28920
28959
28985
28989
29091
29101
29103
29107
29135
29154
29160
29179
29184
29239
29288
29313
29315
29358
29360
29376
29419
29517
29533
29564
29578
29662
29944
29986
[ 531 ]
63
67
72
123
152
246
346
389
436
464
475
650
676
744
779
830
867
1059
1073
1130
1144
1173
1196
1200
1247
1276
1313
1320
1368
1372
2576
2577
2640
2703
2719
2770
2857
2884
2910
2936
2948
2981
3015
3167
3191
3221
3268
3317
3348
3365
3397
3408
3424
3430
3445
3452
3504
3517
3587
3624
3687
3697
3725
3737
3746
3789
3807
3820
3830
3834
3862
3925
3968
4048
4088
4162
4171
4274
4290
4311
4339
4340
4353
4446
4458
4479
4497
4500
4528
4533
4547
4559
4568
4585
4608
4618
4655
4674
4698
4721
4761
4786
4795
4802
4803
4853
4862
4910
4922
4930
4938
4980
5004
5017
5024
5043
5069
5074
5088
5093
5140
5236
5284
5292
5304
5313
5314
5327
5341
5364
5375
5383
5616
5630
5631
5649
5903
5967
5976
6009
6028
6146
6152
6242
6245
6279
6282
6299
6377
6402
6626
6728
6739
6747
6771
6810
6813
6861
6872
6879
6881
6892
6908
6926
6946
6987
7022
7068
7070
7090
7110
7111
7123
7129
7132
7233
7251
7252
7254
7363
7396
7410
7437
7439
7490
7502
7515
7545
7556
7559
7568
7595
7607
7637
7645
7656
7669
7680
7722
7729
7744
7809
7812
7831
7854
7935
7946
7988
8015
8028
8053
8109
8117
8119
8120
8121
8127
8146
8153
8161
8180
8284
8360
8374
8684
8715
8766
8783
8836
8840
8872
8940
8974
8975
9107
9163
9252
9302
9313
9316
9326
9384
9399
9402
9409
9432
9440
9463
9494
9513
9520
9523
9556
9604
9619
9624
9655
9662
9664
9665
9705
9712
9715
9752
9753
9788
9820
9952
9969
9985
10002
10005
10080
10144
10161
10172
10234
10360
10489
10491
10533
10542
10565
10608
10626
10645
10661
10666
10690
10693
10714
10731
10757
10798
10829
10837
10841
10922
10940
10957
10959
10976
10997
11009
11016
11048
11077
11189
11200
11301
11451
11497
11542
11543
11699
11798
11855
11863
11890
11920
12149
12585
12647
12816
12893
12900
12930
12971
13093
13181
13314
13352
13358
13418
13523
13532
13542
13563
13577
13583
13627
13649
13727
13778
13805
13883
14022
14156
14499
14645
14661
14676
14848
14868
14925
15045
15164
15214
15243
15392
15434
15435
15459
15487
15501
15538
15575
15703
15726
15768
15805
15847
15858
15863
15910
15926
15941
15952
15953
15991
16047
16095
16147
16173
16178
16180
16248
16289
16446
16487
16499
16703
16867
16957
17031
17036
17062
17111
17112
17124
17125
17156
17166
17377
17412
17446
17453
17473
17501
17515
17599
17605
17613
21236
21277
21308
21406
21418
21638
21713
21724
22011
22092
27087
27328
27332
27447
27458
27481
27524
27549
27571
27622
27676
27711
27739
27773
27886
28033
28059
28066
28073
28089
28110
28150
28240
28256
28278
28286
28307
28335
28337
28350
28372
28374
28514
28549
28558
28567
28610
28651
28700
28740
28741
28785
28892
28923
28967
28982
28998
29006
29017
29102
29136
29169
29208
29211
29216
29233
29260
29308
29321
29328
29390
29398
29418
29442
29455
29463
29492
29514
29661
29855
[ 532 ]
6
15
77
163
184
352
400
497
596
742
771
818
834
891
929
943
960
1008
1032
1058
1068
1107
1195
1253
1278
1617
2606
2613
2657
2659
2676
2685
2783
2788
2803
2880
2904
2969
3016
3024
3046
3156
3204
3208
3216
3225
3240
3394
3412
3499
3523
3653
3704
3740
3892
3923
3933
3980
4057
4080
4259
4362
4418
4477
4489
4525
4544
4565
4580
4747
4765
4778
4839
4848
4919
4955
4985
5014
5032
5046
5075
5092
5095
5132
5141
5156
5165
5206
5221
5300
5384
5523
5563
5584
5652
5656
5678
5727
5843
5888
5975
6037
6084
6223
6263
6367
6375
6401
6421
6539
6552
6580
6690
6720
6745
6764
6856
6857
6935
6959
6992
6993
7015
7052
7056
7153
7203
7243
7250
7370
7388
7390
7393
7495
7507
7530
7542
7557
7652
7668
7695
7775
7837
7872
7898
7958
7964
8034
8240
8259
8700
8718
8803
8826
8837
8843
8911
9162
9181
9244
9257
9340
9481
9499
9501
9509
9695
9697
9725
9745
9822
9830
10014
10021
10358
10365
10378
10463
10538
10561
10587
10624
10655
10667
10702
10721
10722
10815
10822
10859
10928
10956
10979
11078
11123
11224
11485
11711
11731
11768
12007
12605
12608
12611
12636
12641
12650
12789
12840
13019
13245
13251
13276
13342
13458
13550
13569
13593
13597
13605
13637
13652
13701
13808
14325
14608
14816
14906
14946
14965
14966
14985
15012
15025
15033
15121
15137
15165
15183
15236
15278
15531
15693
15932
16040
16303
16720
16992
17022
17034
17390
17482
17573
17588
21276
21278
21378
21408
21432
21634
21650
21795
21802
21858
21889
22014
22071
26977
27327
27397
27665
27981
28060
28070
28114
28162
28264
28294
28539
28575
28580
28615
28654
28698
28739
28777
28842
28855
28871
28882
28886
28890
28948
28954
28955
28987
28988
29031
29195
29198
29386
29607
29648
29688
29752
29847
29976
[ 533 ]
129
141
142
339
598
630
770
776
987
1016
1033
1047
1339
2638
2752
2819
2932
2933
2935
2949
2950
2961
2980
2990
3062
3071
3144
3171
3202
3335
3390
3416
3446
3530
3806
3849
4262
4478
4506
4508
4527
4561
4564
4577
4611
4665
4676
4728
4766
4921
4971
5037
5040
5057
5120
5225
5228
5233
5246
5276
5452
5520
5612
5620
5692
5707
5965
6228
6241
6261
6270
6346
6363
6390
6423
6594
6656
6683
6784
6788
6814
6822
6858
6903
6968
6997
7019
7027
7087
7128
7134
7281
7406
7454
7474
7483
7622
7676
7743
7883
8042
8134
8422
8635
8721
8741
8742
8752
8845
8928
8977
8995
9112
9299
9362
9479
9827
9949
9953
10323
10556
10564
10685
10691
10735
10938
10939
10988
10999
11039
11499
12014
12626
12646
12682
12704
12823
12832
12914
13585
13589
13639
13641
13794
14026
14622
14627
14774
15030
15126
15128
15135
15220
15468
17077
17201
17385
21322
21727
21934
21964
22056
22077
27341
27668
28282
28293
28584
28999
29356
29689
[ 534 ]
573
685
761
981
1025
1061
1075
1085
2601
2957
3037
3054
3074
3087
3093
3094
3110
3148
4346
4420
4541
4668
5065
5164
5179
5190
5596
5688
5697
5703
6250
6292
6342
6373
6417
6437
6607
6767
6947
6948
6964
6996
7085
7114
7623
7714
7944
7953
7978
8052
8771
8847
8876
8886
9242
9693
10468
10768
10967
12596
12671
12683
12839
12870
13344
13380
13517
13519
13602
13769
13775
14003
14428
14599
15564
16057
21588
28078
28444
28672
28880
28883
29153
29951
[ 535 ]
78
404
470
699
1044
1348
2564
2692
2921
2954
2959
3039
3084
3139
4042
5716
5747
6314
6588
7456
7621
7724
7855
7868
9241
10799
12690
12722
13457
13566
21503
28722
29846
29947
[ 536 ]
988
2919
3098
3153
4936
5036
5238
5684
6331
7382
7874
8722
10671
12600
12602
[ 537 ]
2964
3227
5704
7983
15933
21615
[ 539 ]
519
[ 545 ]
20673
23645
[ 546 ]
19491
20182
20804
23220
23267
23361
23625
23696
23714
[ 547 ]
19481
19776
20538
20554
20790
22830
23202
23350
23689
23768
25233
25951
26015
[ 548 ]
17776
17828
18030
20134
20165
20419
20485
20492
21068
22815
23197
23207
23359
23578
23583
23599
23797
[ 549 ]
12357
17860
18885
20058
20483
20487
20630
20657
20704
20765
20799
20853
20908
21011
21103
21112
21171
22283
22738
22919
22930
23611
25393
25720
25925
26019
26037
26042
26059
26423
[ 550 ]
12485
17805
17963
18262
18465
18501
20142
20162
20688
20852
20871
20966
20992
21090
21123
22173
22440
22473
22599
22676
22690
22707
22714
22715
22762
22766
22883
22975
22984
23021
23991
25157
25213
25252
25422
25425
25584
25885
25905
26079
26236
26277
26507
26587
26597
[ 551 ]
12511
16356
18436
20116
20597
21034
21039
21062
22234
22275
22472
22582
22593
22657
22699
22750
22793
22878
22925
22965
22999
23004
23881
23905
24187
24238
24267
24439
24584
24815
25040
25045
25097
25221
25236
25255
25355
25433
25532
25544
25616
25719
25721
25739
25939
25995
26143
26162
26172
26179
26334
26433
26434
26453
26543
26570
26583
26748
[ 552 ]
12265
12272
12393
12508
12527
14291
16349
16355
17792
18308
18317
18460
18468
20438
20455
20458
20892
20893
20930
20941
20959
20965
20993
21017
21025
21071
21107
21118
21155
22158
22199
22447
22458
22518
22586
22608
22756
22928
22987
23041
23877
24178
24196
24203
24455
24529
24564
24616
24906
25061
25254
25337
25403
25495
25509
25513
25572
25618
25781
26180
26219
26331
26424
26523
26607
26623
26658
26668
26779
[ 553 ]
2044
12305
12344
18114
18135
18495
18783
18802
18886
20964
21023
22163
22929
23029
23035
23127
23939
24118
24157
24158
24516
24626
24822
24945
25110
25130
25782
26141
26156
26567
26577
26749
26759
[ 554 ]
2060
12250
12505
13901
21014
21181
22976
23899
23918
23968
23992
24091
24092
24138
24218
24684
24793
24850
24924
25011
25089
25092
25373
26278
26358
26594
[ 555 ]
1939
2098
11269
12257
12491
13963
13997
14073
14090
14093
14094
14194
14208
14211
14235
18161
24041
24085
24175
24185
24189
24551
24701
25091
26488
[ 556 ]
1838
1845
2018
12401
13931
14041
14101
14114
14117
14233
16913
18733
18799
20955
21203
24580
26629
26631
[ 557 ]
1318
1430
1591
1894
6002
11263
12154
12274
12489
13895
13926
13927
13955
13969
13986
13989
14098
14115
14118
14123
14142
14178
14179
14215
14218
14220
14237
14274
14275
18107
18620
18786
18787
18824
24101
26873
26925
26969
27925
27969
27977
[ 558 ]
1423
1427
1479
1497
1518
1614
1742
1861
1869
1901
1904
2162
5515
7152
9736
10179
10426
10835
12158
12208
12425
13231
14258
14283
14585
16321
16379
16655
17292
18164
18558
18585
18637
18665
18669
18737
18754
18811
18851
25008
26845
26854
27019
27505
27860
27901
28291
28757
28773
29329
[ 559 ]
1163
1291
1443
1446
1463
1949
1950
1973
2159
2359
2590
3264
3907
4065
4193
4278
4285
4630
5439
5487
5858
6133
7196
9580
10477
10621
11097
11116
11272
11306
11426
11557
11563
13101
13310
13324
13492
13874
13877
13973
14173
14270
14562
14566
14575
14631
15048
15166
15304
15512
15516
15867
15880
16315
16539
16652
16695
16771
16912
17044
17120
17896
18638
18748
21213
21251
21361
22136
26871
26881
26885
26918
26921
26935
26971
26972
27000
27027
27076
27431
27479
27496
27515
27648
27740
27846
27898
27933
27936
27991
28175
29429
29574
[ 560 ]
387
479
582
748
803
1285
1287
1293
1385
1396
1403
1406
1420
1429
1502
1503
1507
1879
1967
2357
3260
3443
3512
3527
3597
3663
3924
4002
4081
4255
4356
4566
4903
5144
5251
5434
5537
5574
5768
5803
5831
5900
5937
6015
6071
6118
6126
7155
7156
7318
7677
9719
9800
9826
9918
9971
9994
10034
10332
10356
10478
10828
11030
11084
11150
11212
11217
11235
11236
11270
11535
11581
11602
11613
11616
11620
11804
11821
12667
13065
13137
13282
13303
13463
13792
13892
13935
13990
14063
14088
14120
14373
14568
14683
14783
14833
14903
14918
15085
15143
15306
15321
15386
15519
15523
15529
15845
15889
16139
16149
16300
16569
16603
16677
16680
16746
16840
16846
16945
17070
17141
17160
17269
17330
17442
17445
17477
17527
17549
17895
18621
18628
18648
18671
18728
21225
26843
26856
26964
27010
27189
27265
27509
27538
27543
27650
27767
27817
27871
27944
27959
27975
28118
28174
28257
28289
28502
28553
28841
28859
28938
29045
29295
29332
29798
[ 561 ]
2
8
10
173
282
502
866
922
1170
1271
1381
1395
1453
1490
1493
1960
2509
2522
2631
2650
2672
2841
2874
3127
3370
3409
3417
3493
3532
3534
3611
3633
3657
3660
3683
3741
3776
3825
3879
3884
3932
3936
3993
4049
4050
4053
4058
4067
4096
4131
4144
4167
4195
4199
4241
4287
4289
4295
4679
4831
4867
4876
4911
5084
5351
5352
5421
5430
5473
5510
5733
5764
5791
5846
5857
5948
5961
5963
5988
6001
6025
6065
6085
6095
6125
6685
6860
7103
7147
7188
7198
7261
7263
7268
7296
7319
7320
7329
7357
7426
7549
7565
7566
7596
7599
7609
7625
7636
7673
7844
7861
7863
7903
7926
7932
8029
8033
8065
8075
8077
8088
8111
8142
8525
8540
9296
9331
9333
9375
9393
9415
9460
9517
9528
9583
9596
9660
9729
9742
9747
9757
9790
9810
9922
9980
9981
10033
10048
10350
10361
10420
10536
10579
10597
10603
10696
10744
10770
10866
10874
10883
10907
10929
10969
10989
11086
11089
11094
11100
11114
11156
11167
11180
11185
11206
11230
11308
11447
11461
11466
11560
11625
11773
11859
11893
11895
11911
11930
11974
11983
13021
13135
13247
13283
13284
13293
13315
13316
13335
13347
13390
13423
13456
13570
13616
13826
13889
14147
14150
14152
14360
14453
14457
14534
14541
14594
14595
14689
14702
14828
14829
14858
14870
14914
15055
15176
15186
15187
15190
15364
15430
15479
15573
15649
15826
15843
15861
15870
15930
15948
15963
16546
16639
16684
16747
16785
16845
16854
16857
16910
16914
16925
16991
17001
17079
17118
17129
17155
17359
17397
17490
17536
17548
17564
17568
17581
18580
18617
18699
18713
18732
18743
21215
21231
21288
21317
22052
22063
22064
22086
22101
26878
26951
27003
27119
27326
27363
27369
27383
27411
27428
27448
27452
27476
27486
27540
27556
27700
27705
27715
27780
27809
27813
27835
27893
27951
27972
27983
27985
28019
28067
28080
28132
28155
28338
28506
28518
28550
28817
28896
28900
28901
28913
28914
29082
29084
29113
29143
29334
29345
29365
29490
29536
29556
29799
29917
[ 562 ]
74
134
177
245
808
827
963
966
1192
1248
1263
1302
1335
1365
1379
1380
1399
1415
1945
2272
2350
2546
2605
2668
2715
2786
2850
2855
3250
3257
3271
3274
3283
3289
3340
3349
3413
3421
3429
3437
3472
3489
3518
3550
3559
3570
3577
3581
3594
3596
3598
3620
3634
3674
3702
3812
3833
3891
3921
3926
3939
3947
3965
3972
3986
4013
4024
4051
4107
4119
4121
4128
4139
4149
4182
4243
4294
4350
4355
4359
4386
4393
4430
4488
4512
4518
4529
4530
4531
4666
4671
4752
4788
4888
4909
4914
4934
4965
5071
5193
5334
5345
5366
5378
5503
5569
5638
5643
5738
5763
5810
5812
6008
6018
6069
6097
6109
6123
6386
6389
6559
6801
6874
6889
6891
6950
6954
7009
7014
7016
7074
7089
7122
7140
7269
7274
7288
7309
7327
7365
7427
7497
7511
7649
7681
7742
7803
7833
7875
7897
7905
7993
8056
8059
8086
8096
8158
8363
8538
8559
8861
8871
9341
9371
9378
9381
9420
9441
9470
9498
9545
9548
9577
9600
9603
9633
9634
9640
9653
9678
9689
9709
9718
9723
9733
9821
9914
9931
9989
10040
10047
10275
10367
10496
10500
10520
10618
10630
10634
10707
10729
10776
10777
10849
10864
10890
11005
11033
11064
11283
11284
11289
11299
11312
11372
11477
11482
11505
11514
11539
11588
11618
11657
11687
11763
11910
11913
11942
11969
12075
12097
12586
12672
13158
13167
13193
13249
13318
13320
13336
13395
13429
13455
13499
13520
13894
14023
14368
14372
14471
14503
14507
14551
14663
14677
14699
14778
14823
14860
14990
15144
15168
15173
15219
15268
15293
15368
15401
15403
15429
15442
15483
15488
15500
15784
15824
15848
15864
15914
15938
15984
16006
16033
16061
16083
16092
16239
16242
16245
16270
16478
16700
16765
16766
16791
16838
16870
16876
16901
16907
16918
16944
16986
17084
17091
17095
17122
17134
17188
17414
17419
17456
18698
18731
18734
18757
21244
21248
21287
21296
21327
21666
21870
21886
22080
27012
27069
27075
27403
27404
27433
27463
27466
27470
27541
27564
27565
27585
27593
27598
27649
27687
27709
27956
28053
28061
28119
28172
28235
28252
28373
28445
28562
28588
28623
28659
28666
28674
28713
28725
28781
28821
28822
28826
28827
28835
28891
28904
28917
28942
28973
28994
29025
29114
29128
29200
29259
29331
29333
29384
29405
29414
29534
29557
29559
29575
29594
29669
29739
29755
29770
[ 563 ]
29
199
316
580
614
669
675
804
811
824
826
882
928
961
971
977
982
990
1014
1066
1164
1340
1347
1353
1366
1377
1501
2578
2600
2712
2733
2745
2759
2796
2882
2889
2917
3020
3048
3059
3069
3070
3192
3249
3270
3292
3337
3407
3471
3478
3495
3516
3520
3528
3585
3592
3614
3655
3989
4036
4044
4070
4095
4148
4178
4185
4194
4214
4242
4244
4266
4361
4375
4383
4407
4424
4440
4450
4454
4522
4535
4536
4558
4575
4595
4609
4613
4621
4638
4647
4678
4686
4713
4715
4756
4762
4806
4811
4827
4838
4843
4856
4882
4967
5029
5033
5042
5090
5172
5214
5226
5237
5309
5419
5446
5536
5556
5603
5614
5615
5742
5788
5862
5891
5909
5924
6032
6284
6369
6433
6654
6751
6753
6763
6783
6794
6809
6966
6985
7006
7007
7039
7040
7073
7082
7105
7107
7149
7150
7157
7208
7223
7225
7226
7235
7240
7302
7305
7306
7307
7440
7446
7529
7558
7589
7663
7684
7811
7834
7866
7902
7912
7931
7945
8031
8049
8051
8061
8091
8125
8131
8423
8523
8706
8743
8746
8819
8858
9208
9274
9275
9303
9319
9344
9352
9395
9424
9439
9466
9508
9544
9568
9612
9621
9663
9710
9722
9744
9751
9806
9813
9816
9906
9946
10152
10168
10187
10264
10272
10341
10342
10388
10405
10406
10428
10469
10499
10510
10530
10617
10642
10704
10726
10753
10760
10801
10843
10848
10858
10860
10898
10910
10911
10934
10946
10972
11006
11025
11087
11133
11144
11178
11227
11293
11399
11469
11491
11500
11523
11607
11856
11931
11959
12588
12599
12658
13013
13067
13071
13088
13176
13252
13264
13280
13354
13369
13484
13579
13590
13680
13732
13755
13803
13811
14151
14340
14378
14383
14591
14691
14832
14873
14970
15015
15061
15100
15114
15133
15136
15174
15212
15224
15313
15330
15349
15423
15451
15528
15783
15820
15913
15939
15956
15975
15987
16076
16223
16253
16281
16585
16681
16772
16810
16824
16847
16885
16915
16979
16990
17131
17271
17376
17380
17590
17615
17620
21261
21309
21315
21619
21631
21730
21747
21764
21958
22058
27325
27377
27569
27596
27635
27647
27736
27775
27778
27806
28026
28137
28142
28204
28229
28255
28279
28295
28332
28367
28467
28497
28516
28613
28701
28752
28832
28845
28846
28847
28876
28893
28960
29022
29080
29110
29155
29218
29248
29282
29310
29324
29338
29399
29510
29513
29562
29679
29714
29807
29856
[ 564 ]
3
14
51
56
88
95
100
167
403
496
529
569
644
645
668
684
747
863
991
1063
1082
1199
1364
2275
2562
2644
2748
2768
2792
2837
2840
2894
2916
2951
2974
2983
3010
3064
3089
3123
3138
3179
3330
3658
3705
3844
3851
4023
4041
4173
4205
4230
4325
4326
4334
4384
4385
4433
4462
4486
4571
4574
4579
4598
4626
4653
4677
4681
4694
4716
4782
4800
4809
4826
4849
4875
4925
4928
4964
4968
4973
5011
5027
5126
5131
5147
5168
5180
5182
5212
5254
5365
5367
5594
5793
5913
5972
6253
6271
6272
6340
6343
6359
6395
6425
6428
6536
6608
6653
6781
6816
6845
6876
6911
6915
6937
6940
7026
7096
7097
7231
7241
7376
7394
7407
7416
7452
7476
7481
7487
7489
7551
7553
7569
7572
7579
7711
7738
7765
7784
7820
7914
7938
7957
7982
8014
8092
8154
8527
8553
8569
8801
8835
8841
8910
8913
9165
9195
9308
9330
9551
9559
9615
9622
9632
9801
9911
9920
9925
9944
9974
10088
10387
10415
10439
10551
10591
10592
10639
10647
10664
10720
10762
10769
10803
10857
10869
10900
10914
10921
10925
10944
11003
11010
11049
11102
11136
11345
11592
11694
11713
11852
11960
12001
12594
12800
12842
12948
13321
13364
13555
13606
13679
13682
13795
14754
14835
14952
15002
15018
15028
15115
15148
15530
15832
15838
15921
15985
16050
16075
16121
16126
16160
16165
16228
16241
16246
16256
16701
16790
16880
17465
18696
21260
21262
21267
21318
21320
21530
21705
21832
21844
21927
22065
22074
26989
27643
27663
27682
27712
28045
28074
28187
28206
28233
28301
28339
28340
28347
28462
28578
28602
28603
28635
28673
28695
28744
28834
28866
28885
29105
29161
29177
29238
29277
29309
29319
29368
29493
29512
29710
[ 565 ]
147
216
712
921
1036
1078
1105
2604
2696
2945
2946
2955
2970
3000
3047
3051
3080
3104
3116
3142
3158
3163
3175
3187
3285
4045
4113
4174
4331
4464
4465
4509
4542
4667
4672
4682
4729
4796
4917
4986
5091
5197
5220
5247
5374
5608
5787
6236
6238
6275
6278
6364
6374
6568
6569
6579
6827
6960
6990
7244
7415
7475
7479
7480
7482
7689
7690
7726
7773
7842
7847
7852
7908
7919
7951
7967
8524
8680
8691
8730
8769
8834
8846
8912
9259
9292
9314
9320
9550
9636
9814
9948
10000
10070
10364
10448
10701
10709
10728
10732
10755
10763
10839
10897
10920
11056
11184
11285
11492
11704
11760
11854
11940
12648
12794
12894
13322
13642
13651
13691
13772
13810
13893
14420
14427
14637
14998
15129
15565
15568
15891
15915
15974
16480
21502
21590
21804
21817
21963
27401
27661
27664
28032
28052
28222
28441
28499
28636
28641
28650
28669
28862
29137
[ 566 ]
79
137
143
226
777
797
857
986
1029
1086
1283
2816
2906
3038
3091
3097
3143
4526
4719
4745
4822
4993
5098
5104
5116
5158
5241
5243
5245
5651
5711
6289
6296
6320
6324
6388
6400
6934
7023
7095
7193
7379
7503
7516
7517
7531
7693
7909
7952
7966
8566
8813
8943
9168
10379
10509
10687
10773
10805
11001
11019
11073
11716
12590
12649
12716
12746
13645
13721
13770
13793
14765
15234
15813
16104
16307
16719
18690
21622
21971
28634
28699
29180
29298
29622
29825
[ 567 ]
127
456
710
841
1056
2925
2927
2942
2976
2992
3005
3012
3041
3101
3147
4321
4324
4720
4759
4768
5000
5045
5049
5230
5706
6322
6350
6593
6900
7247
7380
7463
7776
7930
8530
8723
8740
9298
9543
9668
9674
12420
12625
12673
13558
13671
15125
[ 568 ]
408
2831
2926
2978
5171
5664
5715
5729
6415
6820
6829
6942
7894
[ 569 ]
145
6276
9238
[ 570 ]
1055
[ 577 ]
20553
[ 578 ]
23677
[ 579 ]
19261
25992
[ 580 ]
12390
17705
20319
20486
20516
20821
23236
[ 581 ]
12240
12394
12496
18047
18369
22825
22997
23958
25924
[ 582 ]
12501
14306
16353
17807
18063
20127
20496
21128
21190
22651
22746
22783
22802
22803
22924
24147
24197
24811
25558
25934
25936
[ 583 ]
12516
12543
18093
18133
18197
20508
20593
20631
20854
20987
21012
21056
22397
22563
22578
22583
22959
23370
24199
24844
25033
25352
25434
25555
25717
26778
[ 584 ]
12251
12341
12353
12355
12510
14300
18050
18085
18137
18180
18435
21029
21140
22587
22683
22795
22936
23007
23026
24058
24069
24154
24177
24562
25326
25432
25472
26207
26517
26746
[ 585 ]
12301
12317
12359
12363
12409
12482
14284
16347
18101
18142
18319
21184
21192
22392
22450
22459
22539
22776
22922
22989
23020
24071
24108
24183
24209
24247
[ 586 ]
12263
12379
12506
12537
12541
12544
12560
14076
18125
20954
20998
22256
23028
23966
24150
24155
24165
24174
24179
25459
[ 587 ]
2123
12277
12563
13905
13918
13928
13948
13950
13996
14202
23088
23975
24078
24141
24172
24181
25132
[ 588 ]
1461
1878
2092
12217
12270
12298
12316
12323
12371
13964
14069
14084
14099
14168
14193
14287
17900
18150
18729
24130
[ 589 ]
1638
1877
1892
1933
7313
11259
11813
12430
12458
12521
13902
13910
13942
13957
13985
14037
14091
14129
14133
14221
18429
18659
26947
27945
[ 590 ]
1468
1757
1911
1926
5946
11188
11604
12284
12322
12376
12398
12453
13288
13906
13976
13977
14019
14100
14171
14267
14276
14573
15303
15502
16669
16679
16737
17455
17538
18535
18652
18657
18666
18747
18776
22004
26944
27579
27913
27966
[ 591 ]
674
1489
1864
1906
1912
1919
1922
1946
1947
1989
3255
3295
3427
3971
4197
4901
5539
5571
5816
5938
5942
5973
6023
9521
10421
11220
11268
11348
11580
11946
12103
12568
13118
13244
13856
14050
14064
14096
14185
14255
14260
14271
14313
14576
14760
15515
16595
16947
17142
17331
17516
17532
17893
18158
18622
18629
18654
18765
18769
18777
22082
22209
27057
27110
27456
27743
27751
27794
27812
27869
27876
27922
27931
28202
29112
29361
29699
[ 592 ]
385
605
642
745
854
1451
1457
1486
1818
1923
2729
3380
3456
3488
3618
3629
3832
3883
3930
4083
4104
4126
4288
4808
5209
5320
5455
5467
5470
5591
5807
5815
5822
5824
5869
5944
6078
6111
7101
7255
7323
7593
7616
7631
9383
9584
9648
10009
10083
10301
10333
10423
10472
10544
10862
11036
11109
11112
11161
11564
11589
11595
11605
11786
11886
11952
11964
11979
12124
12427
12575
13464
13530
13531
13849
13975
14015
14033
14138
14149
14570
14579
14584
14714
14721
14772
15443
15446
15494
15518
15873
15874
16026
16693
16752
16916
16923
16941
17107
17115
17138
17154
17173
17498
18627
18630
18710
18723
21222
21228
21246
21344
21359
22112
26834
26857
26941
27376
27589
27603
27770
27789
27790
27805
27811
27849
27866
27879
27939
27965
27992
28034
28042
28091
28190
28207
28212
28535
29367
29426
29704
[ 593 ]
636
652
806
1177
1369
1426
1454
1462
1476
1825
2154
2461
2580
2583
2584
2664
2746
2860
2869
2870
2914
3028
3122
3287
3371
3428
3432
3459
3481
3490
3590
3605
3675
3684
3814
3917
3988
4008
4027
4037
4038
4102
4129
4132
4172
4217
4251
4347
4380
4406
4444
4722
4734
4787
4902
5155
5174
5301
5369
5480
5635
5641
5770
5782
5844
5918
5927
5949
6101
6805
6851
7046
7051
7245
7304
7343
7348
7508
7721
7781
7845
7887
7920
7971
8046
8133
9425
9483
9637
9694
9699
9700
9732
9811
9956
10431
10657
10740
10778
10779
10804
10810
10821
10838
10872
10888
10945
11028
11126
11147
11173
11218
11240
11280
11281
11459
11506
11512
11518
11550
11593
11601
11698
11772
11870
11904
11998
12000
12086
12108
13253
13323
13420
13660
13686
13798
13830
13853
13880
13882
13982
14032
14103
14328
14369
14393
14406
14436
14517
14588
14632
14764
15111
15218
15450
15704
15778
15782
15868
16054
16566
16594
16707
16734
16749
16780
16806
16822
17005
17030
17366
17391
17423
17428
17434
17447
17464
17510
17557
17566
17571
17587
17616
18559
18646
18650
18712
18762
21209
21227
21264
21644
21789
22000
22001
22051
22139
26948
27172
27393
27451
27518
27594
27793
27796
27800
27816
27848
27863
27880
27906
27993
28167
28176
28192
28224
28305
28466
28492
28561
28581
28686
28743
28787
28797
28814
28833
28940
28977
29073
29076
29078
29117
29245
29326
29359
29394
29579
29678
[ 594 ]
7
12
25
131
179
253
480
602
619
646
714
829
994
1165
1398
1847
1956
2268
2280
2756
2844
2881
3276
3291
3320
3325
3332
3344
3357
3387
3414
3425
3455
3476
3492
3529
3538
3540
3551
3571
3576
3619
3744
3745
3765
3809
3840
3843
3973
3976
3997
4014
4187
4200
4234
4247
4297
4447
4475
4513
4599
4684
4685
4717
4751
4763
4842
4860
4898
4939
4953
4977
5133
5192
5202
5271
5279
5288
5322
5326
5343
5441
5476
5518
5521
5577
5627
5708
5734
5761
5775
5778
5809
5866
5868
5883
5910
5969
6030
6049
6093
6136
6222
6280
6657
6802
6803
6930
6938
6984
7071
7076
7142
7146
7205
7214
7229
7236
7256
7257
7291
7312
7333
7337
7346
7408
7504
7644
7659
7666
7731
7774
7797
7818
7873
7900
7906
7929
7940
8006
8007
8064
8140
8141
8555
8824
8868
8929
8935
8973
9206
9337
9358
9366
9372
9435
9438
9522
9557
9573
9620
9703
9711
9756
9760
9769
9823
9873
9957
9964
10004
10020
10145
10357
10437
10502
10511
10522
10601
10614
10631
10752
10774
10853
10886
10962
10970
11021
11040
11045
11085
11134
11171
11221
11282
11287
11331
11364
11463
11558
11577
11587
11598
11638
11858
11862
11892
11977
12101
12109
12947
13146
13287
13307
13329
13355
13399
13417
13469
13564
13664
13873
14016
14049
14336
14401
14408
14472
14506
14514
14515
14536
14574
14580
14650
14728
14776
14817
14821
14900
14951
14954
15013
15039
15103
15138
15139
15216
15262
15276
15281
15311
15319
15437
15467
15493
15508
15513
15571
15572
15803
15829
15859
15896
15925
15977
16122
16284
16508
16553
16554
16600
16606
16751
16786
16788
16858
16871
16904
16905
16939
17026
17157
17386
17392
17622
18619
18684
21243
21366
27011
27113
27115
27124
27342
27348
27475
27612
27619
27626
27701
27756
27765
27771
27827
27837
27855
27864
27867
27891
27895
27947
28228
28365
28456
28528
28536
28557
28681
28696
28746
28783
28791
28801
28803
28804
28824
28840
28894
28906
28918
28978
29042
29071
29201
29223
29228
29266
29301
29522
29535
29569
[ 595 ]
23
28
122
140
287
417
590
621
678
717
858
964
970
1005
1009
1013
1015
1069
1087
1292
1506
1509
2164
2167
2517
2519
2534
2552
2632
2633
2661
2716
2723
2747
2760
2789
2806
2865
2891
2909
2975
3031
3109
3117
3168
3232
3241
3242
3297
3305
3442
3466
3468
3554
3555
3562
3858
3867
3875
3897
3901
3940
3998
4075
4112
4158
4166
4181
4265
4269
4298
4304
4322
4366
4425
4499
4524
4554
4556
4661
4730
4740
4771
4775
4801
4832
4837
4861
4868
4920
4994
5034
5048
5077
5136
5142
5153
5175
5176
5178
5194
5196
5224
5232
5263
5272
5329
5358
5403
5404
5412
5535
5597
5650
5659
5784
5854
5885
5901
5907
6060
6235
6349
6439
6609
6808
6902
6912
6917
6932
6945
6949
6971
6994
7080
7084
7246
7290
7294
7355
7386
7420
7421
7461
7467
7523
7540
7546
7552
7575
7647
7688
7718
7771
7772
7795
7801
7850
7860
7968
8018
8045
8066
8079
8138
8139
8213
8364
8410
8579
8683
8796
8873
8946
9364
9510
9563
9611
9618
9647
9652
9672
9728
9934
9947
10068
10090
10380
10412
10416
10422
10450
10494
10547
10602
10609
10651
10715
10719
10743
10745
10817
10954
10980
10982
10998
11131
11153
11166
11168
11228
11238
11385
11475
11479
11493
11508
11509
11529
11603
11722
11860
11970
12008
12084
12668
12881
12946
13128
13205
13292
13325
13401
13404
13525
13678
13717
13737
13771
13855
13865
13972
14348
14361
14426
14451
14467
14592
14603
14644
14647
14684
14843
14882
15022
15110
15141
15142
15146
15152
15155
15172
15208
15215
15227
15428
15495
15506
15695
15779
15780
15810
15927
15936
16032
16265
16497
16543
16577
16579
16629
16714
16750
16819
17056
17066
17395
17429
17430
17433
17487
17555
17570
17629
18692
18763
21257
21259
21290
21291
21743
21857
22067
27157
27161
27364
27374
27400
27636
27642
27645
27653
27683
27822
27834
27905
28021
28104
28117
28121
28188
28220
28266
28277
28287
28320
28443
28493
28505
28512
28573
28582
28668
28675
28685
28702
28707
28786
28795
28796
28810
28860
29057
29097
29341
29370
29397
29403
29447
29878
[ 596 ]
31
55
59
75
132
607
657
660
667
801
973
1030
1031
1071
1095
1162
1279
1342
1356
1909
2277
2342
2652
2674
2773
2799
2802
2820
2886
2939
2940
2999
3025
3079
3146
3286
3288
3438
3460
3474
3566
3621
3661
4154
4156
4177
4299
4313
4370
4395
4416
4443
4459
4492
4521
4569
4583
4600
4610
4708
4709
4810
4812
4840
4845
4896
4944
4950
4954
4988
4989
5099
5260
5319
5350
5356
5576
5874
5877
5878
5908
6092
6298
6319
6602
6765
6825
6836
6853
6854
6878
6924
7043
7166
7222
7289
7374
7375
7392
7398
7431
7445
7469
7518
7534
7554
7555
7578
7710
7720
7757
7759
7766
7769
7864
7867
7915
8039
8078
8181
8275
8419
8577
8734
8739
8808
8879
8884
8962
8968
9230
9338
9374
9380
9430
9436
9482
9495
9589
9593
9594
9679
9755
9804
10299
10404
10446
10540
10594
10713
10813
10965
11008
11017
11151
11242
11244
11661
11666
12133
12606
12899
13207
13254
13374
13376
13599
13669
14412
14415
14522
14717
14822
14956
15017
15077
15132
15213
15527
15543
15714
15856
15901
15954
15986
15995
16306
16444
16486
16550
16570
16627
16668
16796
16825
16919
16997
17057
18706
18722
21305
21319
21343
21461
21637
21842
22070
27609
27617
27710
27755
28095
28109
28144
28213
28300
28694
28706
28708
28794
28875
28986
29001
29100
29325
29330
29531
29832
[ 597 ]
85
103
121
409
661
871
875
989
1027
1062
1133
1319
1386
2166
2566
2689
2811
2995
2996
3017
3043
3106
3111
3112
3113
3183
3217
3301
3462
3500
3531
3970
4456
4480
4493
4603
4701
4749
4798
4817
4852
4874
4963
4966
5041
5053
5064
5066
5105
5106
5143
5875
6266
6268
6330
6357
6672
6967
7012
7063
7078
7163
7212
7432
7443
7455
7457
7465
7624
7807
7824
7977
8744
8811
8827
8960
9121
9433
9453
9486
9503
9950
9951
10369
10548
10694
10764
10887
10909
10924
10942
10955
11018
11300
11728
12129
12589
12825
12892
13560
13685
13688
13723
13774
13783
13861
14332
14416
14443
14652
14659
14845
14850
14917
15156
15169
15713
15792
15850
16068
16706
16799
17013
17213
21374
27380
27646
27787
28012
28184
28186
28216
28306
28311
28442
28540
28545
28844
29269
29352
29382
[ 598 ]
87
792
833
835
876
2903
2913
2918
2924
2928
2930
2979
3086
3096
3145
3665
4293
4300
4320
4348
4540
4602
4726
4777
5100
5148
5593
5677
5686
5720
6243
6337
6406
6430
6828
7192
7378
7383
7478
7725
7836
8005
8951
8961
9872
10470
10611
10699
10808
11507
11955
12419
13726
13806
13891
15308
15722
17025
28193
29219
29220
29317
[ 599 ]
82
93
852
1110
2982
3105
3463
4546
4748
4846
5675
5679
6256
6341
7072
7230
7242
7453
7896
10692
12418
12593
13773
[ 600 ]
102
2934
5721
7524
[ 601 ]
2962
2987
6371
12598
[ 602 ]
101
10905
[ 603 ]
108
[ 606 ]
12421
[ 611 ]
23306
[ 612 ]
22832
23218
[ 613 ]
12503
20594
22720
22782
25457
25804
25919
[ 614 ]
12492
12494
18320
20980
21007
22668
22684
22745
22785
22806
22811
23882
24152
26420
[ 615 ]
12256
12396
12534
14301
18109
20767
20983
21131
22752
23000
25141
25430
[ 616 ]
12343
12348
12385
12387
12395
12407
12520
12546
18132
18428
18518
20507
21016
22500
22744
22983
23014
24219
25144
25471
25716
[ 617 ]
12294
12300
12325
12364
12377
12406
12549
12554
14303
18312
18812
22691
23904
24184
25327
25709
25978
26096
[ 618 ]
12252
12310
12358
12556
14197
14227
14304
24116
24167
24168
24605
25674
26117
26743
[ 619 ]
2106
12295
12369
12412
13903
13945
14146
17907
18780
21210
22992
24079
24180
[ 620 ]
1496
2047
12155
12461
12480
12533
12582
13899
14034
14080
14082
14254
18198
24011
[ 621 ]
2001
2158
11360
12293
12306
12429
12540
13920
13930
13944
13954
13959
14107
14121
14130
14206
24169
27949
[ 622 ]
1455
1832
1833
1840
1937
2145
5798
5864
12320
12399
13900
13907
13946
14036
14070
14087
14242
14264
16675
18739
22096
27241
27274
27590
27675
27971
28000
28001
[ 623 ]
208
397
1557
1630
1951
2514
2533
3712
4078
4657
5915
5916
9737
11179
11271
11460
12031
12045
12434
12481
13327
13843
13916
14040
14043
14184
14280
14434
14438
14675
14731
14842
14879
15161
15514
15895
16754
16821
16860
16898
16932
16959
17462
17520
18634
18749
18768
18773
21208
21217
21218
26864
27007
27008
27266
27271
27304
27551
27672
27754
27856
27894
27911
27974
28770
29036
29115
29299
[ 624 ]
66
182
205
1458
1837
2146
2366
2701
2717
2751
2872
2890
3878
3916
4003
4025
4066
4123
4134
4357
4431
4624
4658
4940
5438
5443
5491
5511
5513
5542
5911
5935
6132
7316
7614
7679
9305
9392
10374
10419
10688
10831
10961
11013
11141
11149
11254
11355
11576
11591
11754
11999
12011
12012
12023
12032
12061
12091
12142
12207
12331
12447
12583
13294
13312
13361
13487
13710
14055
14176
14188
14389
14432
14459
14572
14581
14679
14688
14727
14738
14856
15796
15841
15881
16540
16551
16560
16567
16574
16658
16661
16671
16673
16711
16864
16869
16891
16917
16946
17137
17466
18576
21211
27041
27108
27160
27165
27193
27249
27311
27438
27567
27761
27836
27857
27884
27899
27907
27920
27923
27963
27973
27990
27998
28490
28529
29131
29246
29402
[ 625 ]
34
195
210
227
1256
1447
1456
1498
1952
2298
2464
2481
2553
2700
2839
2866
2892
3256
3279
3347
3515
3539
3553
3561
3569
3599
3603
3635
3710
3889
3912
3981
3984
3991
3994
3999
4130
4136
4257
4511
4654
4659
4744
4784
4942
5022
5085
5201
5208
5355
5425
5471
5494
5758
5795
5821
5838
5840
5872
5906
5914
6061
7079
7169
7211
7322
7401
7430
7573
7787
7871
7918
8035
8147
8517
8844
9295
9334
9389
9390
9504
9524
9627
9746
9926
9992
9997
10022
10036
10038
10043
10599
10606
10633
10635
10668
10680
10767
10800
10834
10893
10981
10991
11020
11068
11091
11135
11191
11210
11231
11277
11288
11332
11368
11406
11472
11545
11626
11637
11717
11718
11814
11894
11956
11971
12010
12079
12096
12110
12150
12152
13113
13160
13306
13781
13829
13879
13978
14008
14012
14128
14312
14391
14523
14529
14604
14820
14841
14901
15177
15425
15491
15934
15935
16291
16549
16562
16580
16709
16764
16784
16850
17089
17133
17153
17467
17494
17617
17630
17632
17636
18662
18753
18756
18758
21316
21330
22078
27123
27150
27197
27252
27309
27313
27340
27399
27786
27839
27928
27953
27957
27982
28133
28370
28508
28800
28903
29048
29050
29151
29380
[ 626 ]
36
65
90
160
161
187
193
204
288
658
750
860
910
1370
1529
2270
2358
2375
2448
2450
2506
2520
2535
2556
2628
2662
2784
2825
2852
2883
2895
3036
3247
3338
3373
3376
3447
3473
3501
3546
3549
3557
3560
3609
3627
3630
3639
3709
3714
3780
3790
3872
3882
3903
3946
4059
4122
4124
4192
4238
4309
4312
4378
4388
4402
4412
4435
4520
4615
4645
4656
4703
4732
4739
4841
4847
4880
4908
4916
4933
4979
4982
5318
5619
5749
5806
5881
5882
5919
5925
6003
6058
6098
6353
6986
6988
6995
7045
7057
7058
7113
7172
7182
7293
7340
7356
7496
7498
7505
7522
7528
7590
7597
7598
7611
7633
7641
7651
7671
7702
7705
7858
7885
7933
7972
8094
8097
8128
8152
8870
9365
9391
9462
9472
9527
9572
9586
9644
9676
9758
9759
9907
9909
9938
9941
9954
9991
10013
10386
10430
10436
10605
10619
10654
10683
10717
10826
10960
10975
11032
11043
11101
11142
11313
11356
11467
11526
11922
12006
12104
12448
13164
13506
13617
13672
13974
14054
14310
14350
14407
14530
14532
14578
14701
14705
14905
15005
15154
15279
15544
15651
15725
15862
15894
15922
15937
16005
16268
16285
16515
16528
16572
16588
16592
16604
16613
16630
16690
16691
16694
16702
16775
16812
16895
16980
17049
17061
17083
17123
17463
17481
17541
17544
18573
18686
18720
21224
21238
21292
21301
21331
27121
27141
27151
27158
27291
27574
27618
27637
27651
27693
27707
27724
27734
27741
27745
27810
27842
28004
28384
28451
28457
28465
28480
28507
28524
28670
28711
28767
28798
28799
28868
29231
29254
29296
29393
[ 627 ]
71
89
113
191
192
586
789
822
823
1176
1190
1243
1400
1410
2141
2274
2470
2510
2530
2538
2545
2675
2801
2823
2856
3067
3076
3090
3188
3198
3203
3258
3331
3368
3403
3449
3465
3556
3662
3899
3987
4031
4145
4394
4432
4468
4482
4514
4519
4552
4604
4635
4670
4743
4791
4865
4871
4918
4945
5025
5039
5086
5134
5200
5244
5426
5589
5730
5752
5756
5767
5950
6239
6240
6244
6360
6545
6563
6585
6595
6766
6916
6923
6952
7000
7028
7127
7148
7239
7279
7299
7360
7367
7429
7747
7916
7923
7942
7959
8032
8041
8067
8076
8102
8137
9315
9456
9457
9461
9464
9496
9497
9502
9602
9659
9692
9698
9724
9933
10001
10065
10075
10402
10407
10451
10474
10476
10620
10700
11029
11044
11146
11162
11186
11234
11510
12017
12145
12917
13331
13441
13620
13663
13668
13687
13745
14501
14512
14516
14698
14708
14814
14837
15095
15123
15217
15228
15489
15525
15650
15789
15860
15878
15893
15924
15978
16105
16267
16544
16563
16590
16597
16608
16609
16632
16654
16678
16692
16767
16875
16889
16921
16934
17046
17472
17478
17623
21294
21334
21635
27257
27263
27378
27632
27670
27674
27725
27887
27890
28046
28049
28160
28459
28526
28761
28811
28838
28951
28991
29011
29240
29255
29278
29279
29290
29307
29377
29670
29716
[ 628 ]
139
150
189
373
576
599
687
784
846
880
1088
1359
1512
2347
2380
2401
2494
2547
2725
2769
3140
3157
3159
3169
3252
3343
3378
3575
3584
3600
4183
4211
4291
4337
4341
4451
4466
4467
4470
4578
4640
4711
4805
4923
4957
4961
4984
4998
5125
5189
5299
5624
5724
5753
5794
5960
6127
6293
6321
6348
6558
6734
6956
7054
7062
7135
7397
7405
7413
7441
7486
7539
7576
7653
7674
7697
7728
7840
7880
7910
7936
8008
8036
8122
8367
8678
8794
8815
8862
9285
9325
9485
9515
9670
9713
9716
9762
9817
10029
10382
10397
10411
10429
10809
10856
10876
10889
10903
10918
10951
10953
11140
11316
11990
12795
13172
13814
13871
14009
14321
14365
14377
14417
14524
14587
14713
14733
15037
15153
15158
15167
15171
15815
15981
16052
16485
16509
16576
16605
16724
16861
17151
17646
18755
21258
21748
21848
27349
27548
27695
28062
28092
28303
28464
28614
29222
29283
29291
29300
29396
29400
29487
29488
[ 629 ]
4
86
105
589
641
887
890
980
1028
1057
2273
2809
2815
2822
3141
3165
3651
3906
4374
4426
4593
4783
4797
4960
5051
5058
5138
5222
5240
5622
6247
6281
6290
6315
6875
6877
6939
6953
6998
7093
7387
7459
7510
7532
7642
7723
7904
8747
8810
8948
8953
8958
9434
9471
9588
9928
10466
10643
10663
10765
10968
11256
11501
11691
11883
11929
12576
13432
13596
13767
13800
14356
14381
14387
14423
14600
14743
14862
14869
14916
15130
15150
15972
15990
15996
16056
16568
16933
16974
21269
21304
21667
21961
27339
27638
27640
27641
27662
28057
28495
29221
29483
29864
[ 630 ]
98
116
180
778
877
1012
2679
2691
2765
2775
2791
2814
2828
2953
2967
2991
3131
3496
4323
4563
4607
5056
5229
5690
6295
6347
6941
7035
7466
7794
8748
8770
8890
9349
9564
9642
10452
10586
10653
10915
10978
11014
11384
12587
12819
15857
16020
16046
16526
17035
21725
27436
28130
28468
[ 631 ]
780
1077
1277
2695
2960
3034
3040
3161
5059
5661
5673
5712
6221
6249
6288
7061
10708
12592
12607
15982
16578
28085
28185
[ 632 ]
136
5055
5714
[ 633 ]
46
154
2984
[ 644 ]
12391
[ 645 ]
22790
[ 646 ]
12408
21009
22760
22786
22810
22921
25438
25877
[ 647 ]
12389
20994
21010
23368
25875
25935
[ 648 ]
12384
12542
12548
14307
20756
21026
22671
22767
22809
23042
[ 649 ]
12269
12303
12478
12523
12553
20957
23025
24173
24208
25530
26560
[ 650 ]
12283
14203
18159
24080
24207
25707
26745
[ 651 ]
2097
12281
12309
12330
14105
18807
[ 652 ]
2140
12248
12289
12373
13914
13933
14217
18785
23024
23027
24076
[ 653 ]
12286
12337
13919
13962
13984
14039
14086
14148
14169
14187
14195
14257
14285
27162
[ 654 ]
1180
1895
1994
2045
2116
2161
5799
5800
5814
5826
12276
12333
12428
12483
13913
13915
13922
13951
13952
14038
14085
14108
14112
14243
14256
14469
16610
16676
16890
18156
18781
18834
23034
24170
27308
27312
27914
27997
[ 655 ]
1459
1948
3294
3602
4190
5527
5912
6063
7719
7798
11264
11265
11267
11584
11951
12059
12071
12120
12146
12156
12203
12332
12439
12446
13311
13326
13850
13897
14005
14144
14157
14223
14861
16547
16565
16618
16687
16940
16977
17135
17875
26865
27142
27167
27169
27202
27210
27226
27240
27305
27777
27908
27910
27929
[ 656 ]
247
825
1401
1424
1494
1508
1968
2156
2254
2351
2424
2425
2686
4011
4127
4143
4401
5469
5776
5845
5905
6047
7171
7317
7324
7519
7788
9741
10827
10836
10873
11243
11362
11408
11414
11520
11606
11963
11984
12049
12054
12056
12073
12090
12118
12136
12565
12827
13309
13764
13801
14013
14345
15223
15871
15879
16633
16657
16664
16674
16761
16776
16848
16894
17043
18167
18584
18609
18693
18694
21313
27127
27166
27203
27242
27248
27251
27276
27317
27457
27602
27608
27633
27760
27808
27872
27915
27917
28002
28003
28088
28470
28766
29049
29062
29371
29375
29404
29554
[ 657 ]
13
37
165
194
202
655
1516
2170
2173
2247
2285
2286
2299
2303
2360
2384
2484
2508
2543
2557
2698
2795
2873
3277
3405
3589
3896
3927
4015
4017
4034
4054
4239
4410
4616
4617
4643
4741
5078
5135
5203
5512
5633
5642
5765
5777
5790
5804
5808
5811
5820
5827
5836
5936
6048
6054
7280
7339
7400
7428
7662
7849
8863
9335
9386
9388
9396
9467
9565
9654
10054
10363
10381
10424
10462
10493
10781
10844
11031
11208
11276
11297
11304
11311
11335
11586
11986
11988
11993
12036
12074
12127
12188
12451
13285
13440
13654
13715
13824
13844
13847
13881
13956
13999
14318
14343
14422
14521
14692
15719
15872
16030
16098
16520
16555
16587
16598
16626
16666
16670
16672
16688
16696
16705
16712
16713
16760
16865
16938
16942
17010
17360
17621
17631
17634
17639
18574
18588
18601
18614
18631
18678
18730
18764
18767
21249
21338
21355
21356
27111
27114
27136
27152
27154
27211
27244
27247
27250
27253
27260
27268
27278
27281
27299
27366
27459
27536
27604
27685
27720
27735
27774
27853
27892
28030
28226
28477
28501
28504
28510
28802
29226
29387
29395
29555
[ 658 ]
125
126
200
248
715
749
831
1161
2172
2264
2302
2353
2382
2462
2465
2518
2808
2854
2871
3166
3326
3341
3426
3453
3519
3526
3628
3919
4001
4007
4063
4100
4108
4135
4307
4437
4629
4637
4680
4844
5073
5282
5348
5361
5409
5485
5590
5743
5762
5847
5934
6010
6729
6970
7003
7077
7325
7354
7391
7682
7698
7786
7890
7924
7925
7934
8057
9480
9505
9578
9598
9630
9650
9669
9671
9738
9935
10028
10046
10078
10084
10501
10543
10623
10625
10737
10754
10820
10825
10833
11022
11139
11266
11294
11309
11333
11462
11568
11600
11733
11945
11997
12020
12081
12121
12139
12153
13177
13194
13219
13248
13289
13291
13546
13689
13739
13858
14341
14363
14374
14444
14446
14586
14629
14660
14690
14718
14720
14825
14834
14836
15014
15157
15170
15231
15946
16168
16552
16581
16596
16656
16659
16715
16722
16733
16781
16843
16888
17474
17503
18567
18624
18680
18736
18742
21272
21283
21297
21335
21350
22081
27133
27138
27163
27187
27205
27256
27267
27277
27303
27306
27600
27605
27628
27696
27721
27769
27782
27897
28153
28290
28448
28515
28527
28693
28774
28878
[ 659 ]
120
221
500
508
688
859
983
1160
1408
2169
2282
2283
2296
2362
2477
2503
2515
2521
2528
2549
2699
2724
2842
2876
2907
3030
3052
3107
3293
3313
3396
3415
3461
3568
3573
3612
3615
3664
3713
4039
4215
4301
4306
4328
4336
4381
4419
4421
4422
4441
4457
4481
4494
4498
4619
4646
4652
4850
4891
4926
4981
5223
5359
5458
5579
5610
5613
5744
5745
5748
5873
6329
6758
7002
7036
7065
7167
7277
7285
7297
7417
7418
7424
7447
7451
7473
7494
7856
7927
8865
8869
9286
9339
9628
9643
9682
9686
9688
9721
9748
9916
9942
10413
10453
10508
10644
10670
10748
10816
10830
10933
11007
11047
11050
11065
11207
11225
11317
11440
11503
11525
11758
11967
11981
12026
12100
12134
12206
12895
12907
13286
13667
13738
14326
14327
14333
14334
14352
14424
14694
14704
14706
14716
14723
15009
15101
15124
15131
15175
15721
15830
15890
15897
16510
16541
16542
16564
16601
16619
16624
16628
16663
16667
16795
16962
17039
17627
17647
18610
18632
27118
27186
27204
27259
27273
27337
27350
27634
27655
27666
27680
27690
27691
27799
28006
28511
28521
28762
28839
29163
[ 660 ]
73
94
97
198
793
805
820
848
862
865
1204
1275
2168
2224
2243
2287
2289
2343
2404
2422
2779
2812
2922
3049
3130
3190
3545
3563
3642
4029
4417
4502
4515
4570
4773
4890
4895
4951
4958
5108
5145
5149
5216
5267
5457
5783
5786
6312
6584
6969
6981
6989
7059
7083
7158
7209
7384
7404
7448
7449
7450
7488
7512
7525
7563
7627
7799
7846
7862
7886
7911
7913
7962
7963
8009
8050
8887
8907
8971
9649
9666
9675
9677
9750
10006
10515
10662
10775
10906
10964
11002
11690
11992
12473
12996
13196
13330
13348
13804
14324
14465
14491
14686
14711
14795
14844
15010
15120
15160
15931
16699
16793
16801
17033
18572
18695
21328
21337
27207
27764
27766
28447
28453
28703
28829
29355
29486
29489
[ 661 ]
19
26
91
119
130
149
183
196
617
790
821
881
884
2248
2253
2563
3137
3170
4573
4639
4724
4746
5739
5920
6759
6835
6976
7094
7436
7438
7485
8085
8087
8720
10298
10465
10596
10659
11004
11012
11015
11726
12126
12424
12471
13500
13658
13714
13802
14323
14351
14359
14744
15149
16698
17027
18608
18625
18688
21240
21329
21617
27184
28177
28182
[ 662 ]
81
106
133
683
800
878
2174
2941
2973
2989
3324
3423
3782
4723
5217
5709
6362
7377
7389
7981
8090
8888
9321
9478
9625
10012
10672
11515
13396
27523
28449
[ 663 ]
96
151
718
763
850
2229
2290
5061
5687
5689
5705
5718
6556
6587
7164
7423
21324
[ 664 ]
4821
5663
28749
[ 677 ]
12498
12528
[ 678 ]
22759
22804
[ 679 ]
12507
[ 680 ]
12386
12411
12512
14302
20996
[ 681 ]
12383
12445
12547
13898
14308
18316
24205
[ 682 ]
12268
12297
12314
12362
12438
14309
26744
[ 683 ]
12255
12299
12334
12378
13921
13967
14071
14081
14083
14119
[ 684 ]
12273
12374
12441
12457
12490
13924
13940
13943
14095
14132
14186
14286
27156
[ 685 ]
12202
12296
12318
12400
12426
12460
12566
12567
13932
13958
13981
14143
14232
16708
16753
27918
[ 686 ]
1839
5207
5475
10780
12166
12466
12559
13863
13949
14104
14125
14247
14272
14273
17344
18160
18644
18778
27139
27841
27996
28129
[ 687 ]
1962
2155
2537
7331
10371
11337
11350
11357
11452
11736
12076
12187
12302
13836
14189
14190
14282
14634
15496
15509
15892
16583
16683
16759
16787
18598
21281
21340
27140
27168
27212
27238
27270
27298
27300
27301
27315
27962
27976
28005
28809
[ 688 ]
39
80
1958
2334
2370
2447
2490
2561
3290
3911
4189
4651
4779
5080
5468
6978
7884
9587
9599
9683
10079
10296
10492
11325
11334
11341
11388
11396
11594
11975
12016
12067
12085
12088
12138
12433
12573
12920
13305
13845
14319
14715
14724
14730
15876
16538
16782
16859
16929
17015
18645
18745
21254
21342
21354
27122
27129
27143
27144
27170
27185
27192
27208
27255
27292
27744
27791
27865
28843
[ 689 ]
64
118
206
242
1412
1961
2149
2300
2335
2345
2354
2524
2536
2555
2730
2875
3164
3591
3625
3666
3902
3914
3990
4000
4012
4018
4028
4620
4650
4660
5205
5728
5819
5837
6806
7109
7615
8150
8860
9684
11255
11359
11403
11555
12002
12003
12030
12046
12055
12058
12062
12099
12111
12115
12140
12143
12474
12571
13261
13478
13822
13846
13854
13993
14124
14370
14386
15109
15498
15504
15520
16299
16556
16561
16582
16602
16607
16631
16662
16665
16682
16710
16844
17055
17431
17633
17635
18682
18711
18759
18784
21289
21352
27128
27131
27132
27176
27180
27183
27196
27199
27206
27285
27297
27310
27336
27356
27706
27814
27819
27845
28011
28181
28208
28476
28486
28531
28793
28887
29079
29491
[ 690 ]
35
70
158
616
654
671
851
2144
2235
2261
2276
2295
2356
2378
2387
2389
2393
2396
2405
2440
2482
2491
2527
2531
2548
2639
2807
3703
3715
3910
4016
4019
4292
4315
4423
4449
4539
4622
4644
4712
4866
5191
5750
5751
5839
5848
5923
6760
6807
6882
7053
7104
7295
7544
7594
8675
8677
9348
9706
9910
10418
11143
11148
11223
11366
11370
11382
11513
11585
12033
12040
12070
12080
12093
12116
12163
12205
13197
13243
13275
13466
13742
13813
14317
14349
14362
14390
14722
14729
15147
15482
15875
16589
16591
16622
16685
16697
16800
17060
17415
17476
17624
18616
18673
18709
18735
21303
27194
27198
27214
27219
27261
27289
27318
27324
27330
27381
27544
27607
27660
27679
27730
27772
27823
27902
28008
28009
28093
28461
28496
28705
29253
29383
[ 691 ]
18
24
107
186
203
794
870
1413
2147
2148
2227
2238
2245
2246
2262
2292
2369
2399
2411
2493
2512
2550
2688
2868
2905
3547
4642
4648
4731
4858
4859
4864
4897
4943
4949
4978
5117
5146
5264
5526
5623
5769
5781
5813
5867
5959
6029
7038
7060
7174
7399
7425
7433
7509
7694
9293
9318
9329
9474
9673
9681
10751
10855
10867
11307
11367
11658
11881
11896
11958
12028
12112
12130
12177
12574
13119
13281
13670
13709
13736
13740
13762
14018
14030
14314
14335
14367
14394
14397
14442
14707
14709
14712
14719
15317
16530
16535
16548
16689
16721
16976
16996
17000
17163
17638
17642
21245
21284
21351
21357
27116
27125
27164
27188
27201
27245
27644
27681
27694
27699
27868
27885
27934
27979
28031
28044
28454
28530
28534
28684
28704
28788
29075
[ 692 ]
124
157
228
231
677
1060
1260
1397
2209
2241
2252
2281
2395
2423
2502
2798
3075
3160
3379
3717
3979
4020
4319
4358
4582
4754
5050
5062
5741
5746
6335
6583
6730
7124
7170
7373
7403
7412
7435
7468
7472
7591
7643
7691
7980
9001
9324
9454
9581
9996
10019
10409
10445
10449
10582
10832
11494
11659
11853
11944
12069
12790
13716
13744
14154
14329
14419
14909
15163
15499
15804
16527
16625
16732
16798
17560
18704
21336
22061
27134
27279
27352
27702
28178
28179
28446
28475
28484
28697
28790
28879
[ 693 ]
42
110
153
773
883
2231
2249
2265
2476
3063
4022
4605
5723
5736
6257
6269
6586
6589
6844
6955
6975
6977
7190
7422
7471
7700
7870
7969
8867
10408
10454
10669
11314
11330
12095
12997
13848
13869
14414
14803
17625
21739
21957
28677
29484
[ 694 ]
44
146
849
856
2497
2966
3042
4303
4634
4863
5188
5717
5740
6382
7179
8013
8529
9475
10015
11511
13768
14364
17379
21855
28054
[ 695 ]
109
4718
4725
5150
5665
5683
6336
10552
10593
11000
14027
27321
[ 696 ]
138
889
2813
5674
5713
7470
10673
10993
28183
[ 697 ]
115
[ 698 ]
5719
[ 699 ]
12422
[ 703 ]
12423
[ 709 ]
12392
[ 712 ]
24206
[ 713 ]
12266
12524
14253
[ 714 ]
12311
12413
14110
14161
24166
[ 715 ]
12267
12368
12580
14196
[ 716 ]
12271
12279
12304
12312
12452
13925
14106
22991
27227
[ 717 ]
12288
12372
12442
12581
14092
14163
14231
18168
[ 718 ]
7315
12048
12431
12462
12463
12477
12558
13941
14010
14158
16899
18744
27147
27360
[ 719 ]
656
2150
11363
11980
12035
12041
12066
12137
12178
12415
12450
12557
13934
14109
14127
14160
16930
18667
27239
27316
27616
27958
29430
[ 720 ]
1181
1405
1425
2284
2368
2374
2454
2513
2540
4415
4628
5802
6154
6972
7332
8676
11418
12029
12043
12052
12072
12092
12122
12151
12193
12198
12321
13257
13302
13841
14035
14385
15497
16517
16559
16586
16849
17152
27135
27146
27148
27182
27190
27269
27295
27296
27358
27726
27727
27960
27961
27984
27994
28007
28010
28481
28489
[ 721 ]
643
809
2214
2257
2338
2340
2365
2371
2376
2377
2480
2554
2560
3543
3898
4625
5239
5805
5825
6973
9359
9685
9754
10045
11209
11329
11336
11339
11419
12019
12025
12042
12102
12114
12435
12470
13256
13270
13297
13299
13708
13857
14431
14739
15517
15882
16523
16537
16620
16621
16773
16896
16897
17008
18592
18685
27145
27159
27178
27213
27246
27258
27275
27282
27283
27722
27776
28472
28532
[ 722 ]
170
609
679
680
752
753
807
1185
2203
2220
2255
2307
2349
2397
2407
2415
2431
2438
2468
2471
2473
2478
2516
2681
3595
3708
3885
3915
4021
4427
4429
4675
5274
5759
5779
5780
7270
7796
8864
9297
9458
9477
9569
9610
9998
10337
10622
11034
11253
11318
11342
11343
11401
12013
12024
12063
12113
13328
13491
13746
13763
13766
14029
14371
14577
14700
14740
14741
14838
14849
16511
16575
16623
16792
16797
16975
17539
17637
18566
18569
18595
18603
18633
18702
18726
27177
27181
27217
27237
27262
27284
27615
27742
27762
27779
27980
28483
28863
29391
[ 723 ]
17
20
114
117
135
166
181
229
240
241
579
788
796
838
845
1504
2183
2189
2196
2218
2258
2259
2288
2293
2314
2348
2361
2392
2400
2479
2483
2495
2500
2504
2505
2525
3367
3606
3904
4236
4317
4413
4428
4623
4633
4641
4664
5735
6974
7001
7180
7187
7500
7707
8690
9394
9487
9529
9825
10017
10077
10456
11130
11286
11391
12038
12098
12998
13290
13304
14337
14339
14464
14710
15505
16522
16545
16593
16599
16866
18571
18612
18615
18672
18701
18761
21242
21323
21332
21348
21847
27112
27209
27221
27235
27236
27254
27272
27280
27287
27294
27345
27354
27611
27652
27659
27671
27692
28225
28227
28452
28482
29485
[ 724 ]
21
176
185
222
2143
2175
2176
2185
2200
2223
2294
2304
2337
2364
2386
3044
4636
4738
4946
5266
5766
6980
7044
7344
7361
7444
7460
7548
7939
8880
9401
9455
10891
11138
11296
12128
13333
13713
13733
13757
14693
14734
14855
15027
16723
16981
18677
18687
18707
21253
21333
27224
27293
28058
28463
28471
28474
28491
28537
[ 725 ]
92
111
128
164
665
781
783
864
2278
2328
2385
2694
3008
4305
4591
5731
5880
7521
9459
9912
10018
12132
12792
13754
18568
21850
[ 726 ]
455
2250
2388
2810
5685
5865
6316
7178
8745
8959
10952
10996
11241
12135
16106
16521
16718
16725
28122
28180
[ 727 ]
230
7941
8421
14355
[ 728 ]
83
[ 729 ]
11383
[ 743 ]
22805
[ 744 ]
22827
[ 745 ]
22530
[ 746 ]
12278
12280
14263
[ 747 ]
14266
[ 748 ]
12440
12555
14162
14261
[ 749 ]
2306
[ 750 ]
12275
12292
12570
16322
18599
[ 751 ]
578
1182
2151
2419
2449
2486
2532
5921
11340
11412
12064
12117
12221
12459
14437
18635
21341
27117
27788
[ 752 ]
162
1179
2234
2313
2329
2363
2408
2412
2523
3913
5353
10370
11338
11949
11954
11972
12057
12167
14011
14028
14315
14687
14831
15883
16519
16557
16558
16900
17119
18705
18752
18801
27153
27155
27191
27232
27243
[ 753 ]
1472
2237
2239
2271
2297
2327
2352
2409
2410
2418
2453
2456
2492
2501
2544
5755
5922
6804
7326
7395
8874
10087
11327
11405
11978
11982
12018
12021
12027
12050
12051
12200
12443
12572
13734
14014
14322
14697
16763
16965
16966
18589
18591
18618
27130
27228
27319
27320
27359
27757
27851
28478
28485
29346
[ 754 ]
1404
2222
2230
2232
2310
2325
2394
2403
2439
2474
2526
2539
2559
2804
3900
4232
4631
5773
7310
9312
9387
9995
10983
11407
11898
11953
11987
11994
12068
12125
12144
12176
12189
13712
13753
14582
14725
14732
14819
14839
14881
16512
16536
16571
16584
16686
16774
16789
16873
18564
18604
18674
21345
21346
21353
27126
27223
27229
27231
27323
27353
27357
27784
27785
27942
28056
28836
29348
[ 755 ]
38
99
853
2180
2215
2226
2244
2256
2263
2279
2339
2488
2529
2542
3586
3588
3711
5587
6191
7037
7176
7409
7499
7716
8428
11315
11358
11380
11943
11995
12065
13743
13747
14366
14384
14421
14696
16525
16573
16757
16794
16872
17475
17644
18596
18597
18600
18602
18611
18700
18721
21223
27175
27200
27322
27355
27781
28488
[ 756 ]
391
394
682
774
837
861
868
2153
2171
2198
2204
2228
2240
2242
2346
2373
2379
2390
2402
2406
2433
2445
2487
2558
4327
4627
4893
4948
5725
5726
5861
7177
9465
9818
10066
11328
13735
13748
13750
13759
14357
14388
14395
17640
18594
18703
21347
27610
28469
28487
28500
[ 757 ]
30
76
798
843
869
1178
2178
2251
2435
2800
4894
5737
8878
13749
13761
14330
14353
15151
18607
[ 758 ]
844
2179
2187
2193
2434
2511
7189
7654
7937
13711
14354
27288
27657
28055
[ 759 ]
155
879
2201
5722
7175
12468
16524
[ 760 ]
791
12417
[ 761 ]
12191
[ 776 ]
12260
[ 777 ]
12410
12550
[ 778 ]
14305
[ 779 ]
12282
12375
[ 780 ]
14164
[ 782 ]
12165
[ 783 ]
2326
2367
2420
9473
12004
14126
27935
[ 784 ]
2217
2267
2322
2430
2463
4632
4952
11379
11395
11398
11991
12173
12197
13859
14695
15492
16513
16516
16777
18575
18689
27137
27149
27174
28771
[ 785 ]
2219
2260
2305
2311
2421
2443
2489
2507
5757
11326
11365
11417
11989
12022
12047
12164
12171
12179
12196
12199
12201
12416
13860
14830
16529
16534
18606
21339
27171
27222
27264
27302
27351
27723
27889
[ 786 ]
2152
2182
2197
2205
2236
2269
2308
2315
2381
2437
3957
4133
4649
4947
5772
7050
8679
11402
11411
11611
12105
13760
14320
16295
16531
27179
27195
27307
[ 787 ]
600
659
785
787
2195
2312
2383
2391
2414
2446
2467
2472
2499
3909
4941
7186
9322
9426
12184
14396
16296
16532
16726
16731
17626
27215
27218
27230
27614
27728
27783
28460
[ 788 ]
212
220
233
239
840
2413
2498
7100
7501
12185
13332
13870
14331
16514
18562
18675
18708
21349
27233
27658
28861
28867
[ 789 ]
238
2225
2324
2469
4774
5732
7895
9476
11323
11957
12186
12192
16862
18676
27654
28450
[ 790 ]
839
2181
2192
2202
5789
5879
8812
10460
12472
12577
[ 791 ]
775
2177
12467
[ 792 ]
41
[ 811 ]
12291
12367
[ 814 ]
12119
14680
[ 815 ]
2416
2541
5796
12180
18587
[ 816 ]
235
2207
2316
2321
2330
2417
2459
11397
12037
14726
27216
[ 817 ]
213
1184
2208
2212
2233
2291
2455
2485
5771
5792
11390
11413
11897
12123
12578
12579
13756
14311
16783
17643
18683
27173
27225
27290
[ 818 ]
156
2210
2301
2323
2331
2344
2452
10067
11369
12106
12172
12175
12287
12432
12469
13271
13272
16533
16863
17648
21282
27234
27568
28509
[ 819 ]
190
236
782
1186
2206
2221
2266
2318
2333
2341
9993
11215
11392
11400
11759
13741
14380
14857
16518
18590
18681
21241
27286
[ 820 ]
214
225
786
2188
2372
2436
7547
7620
8877
11377
12183
12476
13765
16728
16729
16730
18565
27729
27888
[ 821 ]
842
855
2190
2191
2441
7011
12181
12195
16727
[ 822 ]
888
2186
13752
27220
[ 823 ]
2194
2199
12190
[ 846 ]
2320
14159
[ 847 ]
218
2426
18605
18679
[ 848 ]
2142
2216
2336
11375
11381
18563
18570
[ 849 ]
211
244
2319
2475
5346
11378
11996
12053
12170
12174
14316
[ 850 ]
40
209
224
2211
2317
2429
2457
10457
12039
13273
14445
[ 851 ]
2184
2213
2428
2442
11319
11689
12449
14703
27314
[ 852 ]
2398
2466
9323
10458
11321
11962
13751
13758
17641
18613
[ 853 ]
217
2332
12044
[ 854 ]
407
[ 880 ]
2458
11976
[ 881 ]
2427
2444
10050
11324
12034
12182
[ 882 ]
237
1183
11310
11387
11389
[ 883 ]
215
2451
5181
11322
[ 884 ]
2309
2496
7025
12194
[ 885 ]
10459
17645
[ 886 ]
12475
[ 887 ]
201
[ 911 ]
11394
12169
[ 912 ]
11393
[ 913 ]
12168
[ 914 ]
234
[ 915 ]
2432
2460
11376
18593
[ 916 ]
10461
[ 917 ]
10052
11320
[ 918 ]
232
591
[ 920 ]
223
[ 944 ]
9999
[ 946 ]
219
11374
[ 950 ]
10053
[ 952 ]
11371
[ 976 ]
11404
[ 980 ]
11386
[ 1012 ]
11373
