[ 21 ]
20849
[ 22 ]
23343
[ 23 ]
23338
[ 24 ]
19079
[ 50 ]
19694
[ 52 ]
20074
[ 53 ]
19667
19793
23296
23522
23736
[ 54 ]
19032
19399
19568
19886
20297
20553
23318
23321
[ 55 ]
19359
20078
23144
23147
23315
23334
23758
23789
[ 56 ]
18986
20402
20673
23148
23322
23495
23632
23657
23760
[ 57 ]
19002
19073
19455
23304
23445
23454
23546
23547
23631
23635
23639
23647
23690
23710
23771
23781
[ 58 ]
23500
23549
23561
23577
23626
23627
23645
23679
23765
23769
23775
23777
23795
[ 59 ]
19067
23449
23471
23485
23548
23588
23651
23684
[ 60 ]
23617
23683
26014
[ 61 ]
23604
23608
23619
23763
[ 62 ]
23598
[ 81 ]
19815
[ 83 ]
19783
20549
[ 84 ]
19505
19696
19782
19813
19817
19846
20176
20526
23738
[ 85 ]
19460
19566
19595
19601
19630
19658
19698
19800
19801
19819
20072
20175
20293
20324
20543
23169
23198
23307
23317
[ 86 ]
18913
18997
19092
19094
19096
19169
19170
19191
19246
19252
19268
19271
19278
19368
19370
19420
19473
19477
19565
19588
19606
19626
19636
19646
19689
19796
19799
19807
19809
19823
19833
19903
19920
20077
20084
20097
20173
20174
20204
20217
20286
20295
20296
20347
20533
20544
20839
20847
23131
23136
23214
23233
23311
23313
23316
23335
23336
23342
23357
23362
23364
23365
23521
[ 87 ]
18008
18983
19006
19024
19028
19060
19062
19088
19090
19093
19175
19188
19211
19260
19269
19304
19358
19384
19388
19402
19419
19439
19445
19465
19486
19491
19500
19507
19518
19522
19541
19554
19561
19572
19631
19638
19673
19688
19900
19902
19904
19953
19955
19976
20070
20145
20167
20170
20178
20195
20202
20209
20233
20237
20239
20299
20337
20407
20522
20532
20535
20540
20542
20848
23073
23134
23145
23168
23184
23220
23232
23267
23297
23305
23310
23314
23319
23328
23333
23361
23363
23367
23524
23643
23649
23654
23676
[ 88 ]
17740
18927
18934
18939
18985
18990
18998
19083
19084
19146
19148
19153
19173
19207
19227
19245
19256
19339
19351
19360
19361
19390
19393
19511
19559
19563
19838
19842
19889
19949
20182
20185
20187
20231
20265
20291
20331
20365
20405
20432
20671
20710
20746
20798
20804
20807
20822
23064
23066
23068
23141
23143
23151
23153
23162
23235
23246
23291
23298
23301
23436
23487
23491
23497
23499
23523
23525
23563
23644
23648
23658
23671
23675
23714
23718
23728
23744
23753
23754
23757
23786
[ 89 ]
17753
18924
19023
19065
19066
19077
19081
19101
19143
19387
19434
19733
19840
19912
19924
20011
20013
20258
20353
20374
20408
20435
20809
23142
23149
23150
23294
23302
23434
23448
23472
23483
23484
23488
23519
23528
23551
23565
23636
23638
23656
23661
23673
23677
23678
23691
23695
23706
23707
23709
23715
23721
23723
23748
23772
23776
23782
23787
23790
23796
[ 90 ]
18926
18938
19069
19099
20003
20784
20792
23247
23435
23446
23447
23450
23451
23469
23475
23490
23492
23496
23502
23526
23529
23541
23550
23567
23569
23618
23625
23646
23663
23680
23696
23699
23713
23756
23761
23767
23770
23778
[ 91 ]
23460
23467
23493
23568
23624
23630
23682
23687
23698
[ 92 ]
22891
23461
23474
23476
23478
23558
23579
23587
23614
23762
25940
[ 93 ]
23592
23613
23621
25994
[ 94 ]
23601
23607
[ 95 ]
23590
23600
[ 114 ]
19810
19821
[ 115 ]
12495
19607
19692
19693
19761
19787
19816
19818
19825
19826
[ 116 ]
19422
19448
19535
19547
19548
19549
19590
19605
19608
19628
19661
19669
19695
19702
19716
19718
19719
19725
19754
19762
19764
19771
19779
19781
19784
19785
19822
19881
20073
20199
20520
20548
20550
20552
23188
23217
23221
[ 117 ]
19061
19177
19181
19183
19254
19287
19296
19312
19316
19327
19338
19365
19369
19377
19400
19418
19432
19451
19452
19478
19479
19489
19499
19517
19532
19534
19537
19546
19551
19556
19560
19569
19581
19591
19598
19602
19617
19625
19627
19649
19652
19662
19680
19690
19700
19703
19709
19714
19724
19738
19741
19802
19804
19805
19812
19847
19850
19874
19878
19883
19884
19907
19932
20169
20171
20172
20177
20180
20194
20197
20205
20206
20294
20340
20418
20524
20545
20551
20613
20776
20837
20842
22617
22647
23193
23202
23204
23205
23240
23257
23346
23354
[ 118 ]
17733
17969
17975
18408
18905
18908
18909
18911
18912
18915
18949
18989
19104
19138
19157
19166
19186
19190
19199
19203
19215
19217
19229
19233
19234
19236
19237
19241
19267
19275
19279
19281
19283
19286
19288
19289
19293
19318
19319
19320
19355
19378
19391
19407
19423
19426
19450
19456
19463
19475
19481
19495
19501
19504
19509
19516
19540
19544
19567
19570
19573
19576
19589
19592
19593
19594
19596
19597
19600
19611
19618
19619
19642
19645
19653
19660
19664
19668
19676
19681
19691
19727
19735
19737
19740
19742
19743
19745
19748
19752
19766
19770
19776
19777
19780
19788
19790
19795
19797
19803
19824
19828
19837
19897
19908
19910
19923
19931
19935
19941
19954
19983
19984
19991
20019
20047
20075
20083
20141
20168
20179
20181
20196
20200
20207
20211
20214
20242
20244
20245
20248
20287
20298
20301
20302
20310
20312
20343
20346
20348
20351
20354
20359
20363
20370
20389
20517
20531
20537
20538
20547
20554
20675
20760
20790
20835
23074
23117
23132
23133
23177
23190
23210
23216
23241
23306
23323
23340
23341
23350
23355
23356
23358
23732
23739
[ 119 ]
17780
17831
18015
18354
18894
18903
18914
18947
18954
18984
18994
18995
19005
19008
19018
19021
19025
19030
19034
19052
19056
19064
19087
19091
19117
19150
19151
19156
19158
19165
19172
19174
19176
19179
19180
19189
19196
19209
19214
19222
19225
19228
19238
19239
19240
19243
19244
19255
19261
19262
19263
19264
19277
19284
19291
19310
19314
19322
19329
19331
19343
19345
19346
19349
19356
19364
19366
19371
19373
19381
19385
19386
19389
19392
19394
19397
19403
19405
19414
19415
19417
19433
19436
19441
19446
19458
19485
19510
19513
19542
19550
19553
19558
19562
19574
19575
19583
19586
19616
19620
19621
19624
19633
19643
19644
19647
19648
19651
19665
19672
19675
19686
19732
19747
19751
19773
19774
19829
19835
19843
19867
19894
19899
19905
19913
19916
19918
19919
19922
19936
19937
19939
19948
19950
19960
19969
19972
19973
19975
19978
19979
19986
19993
19994
20004
20014
20015
20048
20071
20183
20186
20190
20191
20193
20203
20208
20224
20236
20240
20241
20243
20246
20250
20289
20292
20304
20307
20311
20316
20320
20327
20345
20350
20367
20393
20397
20401
20411
20473
20523
20525
20527
20534
20536
20546
20624
20706
20717
20743
20744
20755
20771
20779
20797
20802
20819
20828
20829
20830
23138
23154
23182
23212
23223
23249
23254
23264
23276
23295
23309
23312
23320
23351
23360
23392
23443
23641
23642
23669
23674
23689
23727
23730
23740
23745
23759
23798
[ 120 ]
17671
17745
17829
18404
18916
18921
18928
18937
18941
18952
18956
18982
18987
18991
18993
19001
19012
19029
19031
19036
19055
19058
19072
19074
19082
19085
19086
19089
19098
19102
19105
19107
19137
19139
19147
19149
19154
19185
19197
19198
19201
19204
19206
19218
19223
19247
19248
19249
19251
19265
19266
19270
19272
19350
19352
19362
19404
19409
19413
19440
19442
19453
19482
19514
19525
19585
19637
19641
19731
19834
19839
19844
19853
19885
19892
19893
19911
19928
19938
19957
19961
19970
19985
19995
19999
20008
20021
20213
20222
20225
20228
20229
20238
20251
20261
20290
20332
20333
20335
20355
20356
20372
20380
20385
20391
20399
20406
20413
20470
20474
20699
20718
20720
20728
20758
20774
20793
20794
20795
23067
23137
23139
23140
23146
23152
23157
23163
23225
23230
23237
23242
23275
23281
23283
23293
23300
23331
23440
23441
23498
23517
23518
23520
23640
23662
23666
23667
23722
23741
23746
23791
23794
23815
[ 121 ]
17694
17730
17739
17751
17775
18922
18925
18929
18936
18944
18945
18979
18988
18999
19003
19015
19022
19045
19068
19070
19071
19078
19140
19141
19144
19152
19212
19242
19332
19336
19382
19577
19640
19656
19841
19981
20056
20215
20218
20223
20334
20357
20381
20383
20390
20398
20430
20434
20610
20708
20788
22830
23048
23052
23065
23130
23268
23292
23337
23444
23458
23486
23542
23562
23633
23634
23652
23653
23655
23660
23664
23670
23697
23700
23701
23702
23724
23725
23729
23735
23743
23749
23773
23774
23784
23792
23793
23802
23812
23813
23814
26021
26659
[ 122 ]
17754
19013
19016
19044
19075
19076
19080
20256
20395
20808
20811
23226
23244
23299
23438
23439
23442
23452
23455
23457
23473
23480
23482
23494
23527
23554
23555
23560
23564
23566
23570
23650
23659
23665
23686
23705
23708
23747
23755
23766
23768
23780
23783
25216
25230
25233
26035
[ 123 ]
19042
20378
20392
23423
23437
23470
23479
23501
23573
23575
23581
23584
23585
23597
23616
23628
23685
23704
23750
23751
25228
25951
26006
26015
26016
26029
26034
26036
[ 124 ]
23503
23553
23556
23557
23574
23605
23620
23622
23629
23681
23764
25992
[ 125 ]
23466
23572
23582
23586
23589
23594
23606
[ 126 ]
23580
23593
23602
23610
[ 127 ]
23612
25993
[ 142 ]
12391
[ 143 ]
12390
[ 145 ]
12499
[ 146 ]
18520
[ 147 ]
19678
19699
19786
19811
19814
20911
22639
23201
23207
[ 148 ]
18373
19425
19468
19529
19609
19613
19614
19697
19711
19717
19753
19763
19808
19827
20339
20481
20562
20741
20838
20845
20850
20919
21115
21121
22384
22600
23195
23196
23197
23199
23200
23208
23329
[ 149 ]
17702
18172
18370
18383
18391
18403
18884
18892
18898
19049
19194
19195
19257
19258
19315
19321
19328
19357
19375
19427
19469
19474
19480
19515
19519
19521
19526
19531
19536
19552
19555
19582
19604
19622
19629
19634
19657
19679
19682
19707
19712
19722
19726
19750
19765
19778
19789
19806
19820
19832
19845
19863
19875
19877
19880
19934
19964
20121
20166
20288
20303
20306
20318
20323
20330
20404
20485
20503
20559
20571
20576
20579
20584
20595
20604
20722
20729
20789
20841
20843
21068
22332
23103
23119
23189
23203
23219
23258
23308
23344
23395
23737
24484
24952
[ 150 ]
17681
17722
17776
17783
17803
17816
18009
18031
18205
18234
18367
18406
18887
18896
18907
18959
18961
18974
19000
19038
19116
19167
19168
19171
19184
19208
19216
19235
19253
19280
19294
19297
19298
19299
19301
19302
19303
19308
19324
19325
19374
19376
19421
19424
19428
19447
19459
19464
19470
19472
19476
19490
19493
19497
19502
19506
19508
19520
19523
19527
19543
19545
19584
19603
19610
19612
19615
19635
19663
19666
19670
19671
19683
19685
19704
19706
19708
19710
19713
19721
19723
19729
19744
19746
19755
19758
19768
19769
19772
19791
19794
19848
19849
19852
19868
19873
19876
19882
19917
19940
19942
19943
19952
19956
19965
19966
19982
19988
20001
20017
20027
20067
20104
20119
20136
20143
20151
20192
20198
20216
20226
20227
20230
20247
20249
20269
20284
20300
20305
20309
20313
20314
20319
20326
20338
20342
20358
20469
20475
20478
20482
20521
20529
20541
20556
20603
20605
20659
20667
20676
20730
20731
20748
20757
20759
20772
20773
20791
20800
20801
20814
20820
20834
21028
21110
21111
22588
23071
23108
23113
23125
23128
23129
23158
23167
23170
23172
23185
23191
23192
23213
23218
23236
23239
23259
23263
23274
23324
23359
23366
23799
23801
[ 151 ]
17675
17682
17721
17736
17758
17765
17766
17806
17827
17844
17989
17990
17999
18030
18407
18410
18901
18906
18930
18942
18943
18965
18967
18992
18996
19004
19009
19011
19026
19027
19033
19039
19043
19095
19128
19159
19162
19164
19178
19182
19187
19193
19200
19202
19220
19221
19230
19232
19259
19282
19305
19311
19317
19330
19334
19335
19337
19344
19348
19353
19354
19367
19372
19379
19396
19401
19408
19410
19416
19435
19438
19443
19457
19461
19483
19488
19557
19579
19587
19632
19639
19650
19654
19659
19674
19677
19684
19715
19730
19831
19836
19854
19855
19872
19879
19890
19891
19895
19896
19901
19914
19927
19930
19944
19962
19968
19971
19974
19977
19987
19989
19997
19998
20000
20018
20023
20052
20059
20062
20069
20092
20113
20134
20140
20152
20165
20184
20210
20212
20221
20235
20252
20260
20262
20264
20266
20267
20308
20322
20325
20328
20329
20344
20349
20360
20362
20368
20384
20388
20394
20414
20419
20428
20431
20476
20477
20486
20492
20494
20497
20505
20509
20565
20616
20620
20640
20700
20711
20712
20726
20727
20737
20738
20747
20749
20769
20775
20780
20781
20785
20818
20824
20826
20982
20990
22435
22818
23069
23083
23105
23122
23135
23155
23164
23174
23175
23176
23206
23215
23224
23231
23238
23251
23253
23255
23256
23265
23270
23285
23286
23326
23332
23339
23352
23717
23785
23800
25320
26784
[ 152 ]
17705
17706
17734
17738
17741
17743
17756
17763
17769
17770
17781
17810
17830
17862
17951
17996
18020
18040
18904
18917
18918
18931
18932
18933
18940
18950
18958
18963
18970
18971
18976
19007
19010
19020
19040
19041
19046
19048
19053
19059
19097
19100
19103
19106
19145
19205
19210
19213
19224
19274
19276
19290
19292
19300
19306
19341
19342
19380
19383
19395
19444
19454
19564
19655
19830
19906
19909
19921
19925
19926
19945
19946
19958
19980
20005
20007
20038
20050
20057
20147
20161
20163
20219
20220
20234
20254
20285
20361
20364
20366
20369
20371
20373
20375
20386
20400
20403
20429
20491
20539
20611
20648
20705
20709
20713
20786
20787
20803
20805
20815
20827
22425
22470
22716
22769
22815
22832
22841
22843
22857
22872
23055
23102
23156
23181
23228
23243
23250
23266
23273
23287
23288
23468
23688
23711
23731
23788
23797
23817
23833
25465
25801
25847
26039
26233
26589
[ 153 ]
17667
17668
17725
17747
17752
17755
17757
17760
17773
17828
18046
18946
18948
18951
18957
19017
19019
19054
19057
19134
19135
19136
19142
19309
19333
19340
19512
19739
19915
19959
20006
20010
20012
20040
20051
20054
20160
20201
20255
20259
20282
20376
20379
20387
20516
20637
20766
20783
20810
20817
20821
20988
22837
22858
23022
23044
23053
23095
23100
23272
23290
23303
23459
23513
23531
23672
23692
23726
23733
23847
25071
25098
25645
25786
25846
25907
25911
26022
26033
26038
26040
[ 154 ]
17666
17746
18923
19947
20257
20315
20382
20409
22896
22899
23045
23046
23427
23453
23481
23489
23509
23514
23532
23540
23559
23637
23694
23752
23804
25333
25928
26017
26018
[ 155 ]
18920
22866
22893
22894
22897
23049
23456
23464
23539
23571
23576
23583
23615
23803
25527
25732
25787
25991
26013
26023
26031
26032
26057
[ 156 ]
23578
23596
23623
25227
25232
25248
26009
26043
[ 157 ]
23465
23591
23599
23603
25231
26005
26010
26012
[ 158 ]
23595
23609
25984
25986
25990
26004
[ 173 ]
12345
[ 174 ]
12394
[ 175 ]
12357
12392
12502
12536
[ 176 ]
12503
[ 177 ]
12240
12496
12500
12528
[ 178 ]
12498
22636
[ 179 ]
16350
18330
19767
22481
22482
22638
22641
22642
22751
23194
26422
26423
26425
26769
26801
26802
[ 180 ]
16339
17982
18260
18279
18890
19496
19701
19720
19756
19760
20321
20460
20555
20561
20592
20598
20608
20629
20657
20831
20840
20851
20853
20857
20866
20917
21119
21148
22253
22281
22359
22367
22550
22555
22609
22662
22697
22754
23901
24876
26773
26796
[ 181 ]
17782
17785
18192
18281
18314
18321
18379
18413
18478
18848
18863
18868
18873
18895
18897
18899
18960
19050
19429
19466
19467
19498
19530
19599
19705
19749
19757
19775
19792
19851
19857
19859
19860
19871
19951
20020
20032
20068
20099
20106
20114
20130
20135
20188
20421
20427
20462
20479
20519
20530
20567
20582
20588
20591
20596
20617
20621
20623
20630
20633
20674
20716
20736
20740
20874
20908
21011
21097
21127
21151
21157
21171
22266
22272
22274
22284
22374
22387
22408
22622
22626
22682
22708
22729
22733
22738
22755
23061
23107
23124
23179
23186
23222
23260
23349
23353
23908
23958
24911
24920
26462
26792
[ 182 ]
17664
17674
17680
17703
17713
17777
17802
17937
17965
17967
17974
17978
17980
18012
18029
18055
18059
18062
18066
18127
18211
18231
18259
18310
18369
18372
18386
18390
18444
18455
18859
18877
18878
18885
18891
19035
19108
19110
19111
19118
19119
19163
19231
19313
19323
19326
19347
19430
19431
19437
19462
19471
19484
19487
19494
19571
19623
19759
19798
19865
19869
19887
19888
19990
20026
20064
20076
20081
20088
20096
20098
20102
20129
20139
20153
20154
20157
20232
20283
20317
20336
20412
20420
20452
20464
20465
20468
20471
20483
20501
20568
20570
20574
20578
20583
20594
20649
20652
20660
20668
20679
20719
20777
20799
20832
21067
21103
21112
22175
22218
22283
22322
22340
22385
22434
22456
22475
22623
22629
22650
22696
22702
22720
22726
22798
22826
22941
23019
23070
23094
23123
23171
23180
23183
23209
23211
23261
23348
23371
23378
23720
23828
23932
23933
23949
24879
24883
24888
24905
24953
24967
25413
25482
26268
26442
[ 183 ]
17669
17670
17672
17698
17724
17804
17823
17826
17832
17852
17854
17855
17860
17987
18003
18026
18039
18047
18056
18057
18318
18327
18337
18352
18411
18448
18454
18882
18902
18953
19047
19063
19112
19115
19120
19121
19127
19160
19161
19192
19273
19295
19307
19363
19406
19449
19503
19524
19578
19580
19687
19864
19992
20025
20028
20029
20030
20089
20094
20101
20118
20156
20164
20189
20253
20341
20352
20424
20466
20484
20487
20490
20495
20500
20528
20577
20607
20619
20622
20626
20643
20653
20661
20666
20672
20683
20692
20698
20714
20715
20723
20742
20750
20812
20813
20823
20825
20873
20978
20979
21073
22386
22400
22422
22437
22674
22711
22770
22772
22800
22814
22821
22840
22851
22859
22918
22938
22997
23063
23086
23110
23114
23116
23166
23173
23187
23229
23234
23252
23262
23278
23282
23330
23374
23389
23712
23716
23848
24019
24862
24900
25437
25485
25863
26064
26267
26592
26616
26729
26791
[ 184 ]
17690
17707
17710
17732
17735
17742
17771
17778
17779
17808
17809
17858
18016
18021
18048
18060
18064
18067
18072
18102
18117
18118
18359
18910
18935
18966
18977
18980
18981
19014
19124
19126
19132
19155
19219
19492
19734
19736
19856
19898
20002
20022
20039
20058
20138
20146
20263
20280
20377
20415
20445
20498
20499
20510
20514
20609
20615
20638
20697
20701
20721
20724
20733
20739
20770
20782
20806
22813
22831
22833
22838
22844
22845
22846
22855
22881
22884
22930
22942
22952
22968
22971
22972
23054
23077
23090
23092
23096
23111
23160
23165
23227
23248
23271
23284
23380
23402
23409
23420
23506
23668
23719
23734
23779
23807
23832
23852
24233
24248
24375
24382
25139
25193
25205
25293
25294
25362
25393
25479
25579
25662
25808
25817
26037
26104
26116
26144
26214
26220
26222
26298
26458
26692
[ 185 ]
17673
17676
17686
17709
17720
17728
17744
17750
17759
17761
17764
17774
17811
17846
17849
18001
18025
18451
18978
19131
19250
19285
20009
20042
20046
20396
20437
20696
20703
20704
20778
20989
22678
22782
22790
22794
22825
22828
22898
22901
22903
22919
22964
23050
23051
23056
23101
23161
23245
23280
23386
23388
23398
23406
23411
23413
23414
23419
23421
23505
23516
23533
23544
23545
23703
23811
23851
23855
23871
24225
25060
25075
25101
25102
25162
25298
25452
25457
25498
25600
25644
25720
25790
25800
25804
25818
25832
25833
25844
25871
25886
25909
25912
25914
26027
26074
26077
26095
26230
26487
26670
26688
[ 186 ]
17688
18919
18955
20055
20060
20433
20636
20765
22836
22842
22867
22887
22889
22908
22916
23428
23431
23508
23530
23538
23552
23693
23816
23821
25065
25069
25211
25500
25549
25639
25736
25773
25788
25795
25799
25807
25827
25855
25874
25919
25924
25941
25956
26011
26019
26020
26026
26028
26041
26042
26076
[ 187 ]
17729
22868
22900
23047
23404
23742
25025
25041
25047
25212
25215
25222
25226
25256
25285
25506
25510
25561
25586
25623
25696
25798
25879
25881
25920
26030
26050
26052
26055
26059
26196
26313
[ 188 ]
22895
25066
25067
25237
25617
25681
25731
25876
25925
25927
25938
25952
25954
25958
26002
26024
[ 189 ]
23477
25983
25999
[ 190 ]
25026
25243
25988
[ 191 ]
23611
[ 207 ]
12232
12515
[ 208 ]
12408
12504
12518
12519
[ 209 ]
12225
12492
12494
12497
12501
12513
12531
[ 210 ]
12493
22511
22521
22560
24716
24771
[ 211 ]
12485
18241
18250
18299
18338
18374
18522
18523
20601
20844
20852
20921
20922
21102
21116
21123
21162
22233
22239
22516
22532
22557
22571
22604
22624
22643
22646
22701
22732
22741
23957
26420
26800
[ 212 ]
16353
17971
18144
18190
18201
18209
18244
18280
18341
18526
18846
18871
20082
20125
20580
20587
20590
20599
20602
20681
20725
20855
20856
20861
20871
20880
20884
20924
20926
21096
21099
21101
21122
21126
21128
21161
21190
22171
22242
22346
22373
22375
22380
22430
22513
22553
22567
22569
22581
22589
22595
22599
22605
22613
22630
22635
22640
22644
22645
22648
22656
22666
22676
22686
22693
22698
22735
22739
22746
22748
22926
23345
23347
23369
24643
24746
24764
26418
26419
26803
[ 213 ]
17715
17795
17977
17984
17985
17992
18035
18119
18126
18139
18179
18208
18213
18214
18219
18229
18239
18240
18301
18305
18328
18335
18340
18344
18371
18470
18501
18505
18770
18779
18840
18845
18847
18855
18856
18858
18870
19226
19528
19533
19862
20085
20128
20137
20144
20158
20410
20422
20425
20480
20518
20560
20563
20573
20586
20589
20600
20614
20632
20651
20687
20732
20753
20754
20762
20833
20889
21004
21008
21009
21054
21055
21090
21091
21092
21094
21106
21114
21125
21135
21145
21191
22237
22240
22260
22268
22277
22289
22293
22401
22404
22551
22552
22554
22566
22568
22602
22612
22625
22627
22631
22654
22655
22664
22667
22670
22675
22695
22700
22704
22745
22753
22757
22771
22773
22781
22797
22921
22948
23060
23080
23093
23109
23376
23837
23902
24325
24555
24655
24799
24810
24824
24829
24935
25416
26277
26446
26768
[ 214 ]
14306
17712
17716
17717
17726
17762
17786
17789
17794
17796
17805
17815
17859
17909
17932
17934
17954
17968
17979
17981
17988
17995
18005
18011
18018
18036
18042
18063
18068
18071
18095
18129
18212
18223
18235
18236
18248
18251
18263
18311
18322
18323
18326
18347
18376
18378
18381
18394
18424
18446
18449
18465
18487
18493
18494
18860
18883
18893
18975
19051
19114
19123
19538
19858
20066
20079
20080
20103
20117
20120
20124
20142
20148
20155
20277
20467
20488
20502
20557
20575
20585
20606
20641
20646
20647
20650
20655
20662
20678
20680
20734
20751
20768
20846
21007
21018
21049
21064
21072
21074
22173
22226
22236
22265
22279
22307
22323
22326
22328
22334
22339
22347
22370
22388
22398
22403
22417
22420
22440
22463
22480
22620
22628
22649
22651
22665
22668
22673
22680
22684
22707
22717
22721
22724
22727
22736
22759
22760
22764
22765
22766
22774
22783
22816
22847
22933
22977
22994
23016
23062
23081
23089
23104
23277
23279
23377
23393
23394
23861
23906
23950
24021
24147
24216
24430
24486
24611
24645
24657
24738
24739
24833
24836
24857
24875
24885
24914
25371
25478
25864
25868
25897
26084
26221
26247
26269
26444
26478
26605
26752
26766
26767
26793
26794
26804
[ 215 ]
17665
17679
17683
17704
17737
17767
17768
17772
17819
17820
17863
17941
17946
17948
17950
17952
17998
18000
18004
18014
18022
18027
18038
18044
18052
18053
18054
18070
18083
18087
18089
18097
18218
18224
18320
18348
18351
18368
18384
18416
18422
18423
18432
18483
18498
18962
19109
19398
19539
19728
19870
19963
19967
19996
20024
20034
20035
20036
20065
20091
20093
20107
20127
20132
20149
20150
20162
20272
20274
20279
20417
20423
20447
20449
20451
20472
20504
20515
20566
20625
20635
20639
20642
20669
20677
20686
20689
20695
20707
20763
20796
20816
20956
20972
20980
20981
21006
21022
21040
21105
22169
22220
22313
22341
22345
22394
22405
22411
22419
22433
22469
22596
22621
22679
22690
22706
22714
22715
22719
22722
22762
22784
22803
22804
22811
22820
22822
22834
22835
22854
22880
22913
22935
22940
22943
22946
22951
22953
22956
22970
22974
22998
23023
23059
23072
23075
23091
23097
23112
23121
23159
23178
23325
23375
23415
23830
23843
23844
23859
23928
23971
24022
24197
24330
24440
24507
24556
24558
24649
24811
24851
24973
24982
25184
25397
25399
25417
25422
25425
25439
25865
25866
25869
25902
25969
26085
26101
26120
26203
26224
26231
26266
26385
26489
26580
26587
26588
26597
26693
26732
26739
26777
[ 216 ]
17677
17687
17693
17695
17697
17731
17748
17807
17812
17814
17842
17856
17963
17991
18002
18010
18065
18069
18073
18082
18262
18350
18357
18361
18400
18452
18876
18973
19037
19411
19866
20049
20061
20115
20436
20441
20443
20493
20506
20511
20513
20684
20702
20962
20992
22198
22348
22399
22413
22473
22785
22786
22787
22788
22802
22810
22812
22817
22839
22852
22856
22860
22879
22902
22915
22917
22924
22957
22962
22969
22975
23021
23115
23118
23120
23269
23289
23397
23401
23416
23418
23426
23432
23433
23835
23836
23856
23863
23870
23882
23991
23993
24031
24152
24191
24192
24232
24403
24438
24818
24904
25049
25050
25106
25174
25177
25296
25297
25353
25428
25436
25438
25440
25467
25475
25477
25753
25794
25805
25811
25814
25900
25905
26025
26063
26067
26071
26083
26088
26092
26093
26344
26396
26507
26640
26775
[ 217 ]
17723
17813
17949
18045
18972
19129
20043
20045
20053
20439
20450
20645
20966
20991
22775
22806
22861
22862
22864
22873
22883
22886
22910
22912
22984
23057
23390
23403
23410
23425
23430
23504
23805
23824
23850
23853
24244
24249
24259
25064
25068
25082
25087
25093
25135
25173
25207
25276
25287
25291
25292
25300
25350
25363
25368
25398
25435
25447
25454
25496
25507
25519
25581
25584
25642
25647
25649
25744
25792
25796
25887
25913
26056
26061
26078
26089
26090
26098
26100
26119
26149
26150
26152
26160
26170
26171
26181
26209
26215
26217
26236
26311
26397
26475
26664
26687
26690
26700
[ 218 ]
17857
19133
20044
20496
20688
22890
23400
23534
23536
23543
23809
23810
24262
24358
24359
25070
25073
25123
25157
25159
25167
25213
25229
25234
25277
25286
25290
25295
25299
25315
25317
25455
25456
25469
25502
25517
25523
25524
25531
25535
25545
25595
25607
25624
25629
25632
25646
25653
25679
25695
25723
25740
25772
25774
25785
25812
25830
25845
25856
25858
25885
25908
25918
25921
25929
25930
25932
26049
26058
26066
26079
26102
26106
26111
26148
26240
26245
26663
26676
26679
26683
26708
[ 219 ]
22909
23462
23846
24038
25029
25042
25214
25224
25225
25235
25238
25241
25247
25303
25518
25522
25537
25558
25562
25574
25576
25591
25609
25619
25625
25631
25633
25637
25638
25651
25656
25660
25685
25689
25704
25730
25734
25735
25793
25839
25877
25883
25936
25944
25945
25946
25953
25955
26048
26134
26147
26159
26163
26647
26662
26677
[ 220 ]
23463
24039
25250
25252
25253
25258
25334
25559
25560
25570
25590
25594
25597
25669
25672
25673
25682
25699
25931
25934
25949
25957
25981
26000
26001
26003
26007
26008
26047
26199
[ 221 ]
25032
25563
25598
25684
25686
25852
[ 222 ]
25985
[ 223 ]
25987
[ 233 ]
2056
[ 235 ]
12326
[ 237 ]
12347
12397
12543
[ 238 ]
12238
12256
12339
12346
12360
12382
12388
12396
12517
12545
[ 239 ]
12239
12249
12389
12529
12534
[ 240 ]
12230
12511
12516
[ 241 ]
12226
12507
12530
22562
24745
[ 242 ]
12514
12525
16340
16351
16360
16364
16365
18185
18284
18529
20870
22356
22360
22519
26434
[ 243 ]
16345
16356
18131
18249
18509
18512
18524
20597
20628
20854
20885
20887
20903
21124
21136
21188
22234
22255
22280
22369
22483
22499
22508
22509
22510
22526
22558
22559
22561
22563
22579
22580
22592
22601
22731
22740
24707
24742
24748
24769
24787
24797
24864
24877
24950
26433
26565
[ 244 ]
17798
17825
17976
17986
18133
18145
18147
18153
18178
18197
18242
18243
18266
18294
18297
18329
18436
18466
18473
18480
18497
18513
18515
18521
18841
18849
18854
18872
20126
20444
20461
20558
20569
20627
20631
20864
20872
20875
20910
20912
20915
20923
20935
21120
21134
21143
21146
21147
21152
21158
21172
21180
21195
22177
22208
22238
22241
22243
22244
22264
22270
22290
22291
22371
22409
22478
22490
22572
22576
22577
22578
22582
22583
22590
22598
22603
22615
22618
22633
22658
22669
22685
22687
22689
22694
22699
22705
22747
22749
22750
22780
22927
23373
23907
23940
24448
24493
24583
24628
24636
24723
24725
24749
24753
24776
24780
24798
24805
24878
24895
24944
24951
24956
26273
26276
26410
26453
26461
26543
26546
26558
26771
26772
[ 245 ]
16354
17714
17801
17824
17911
17917
17919
17956
17966
17972
17983
18033
18076
18077
18078
18109
18111
18123
18130
18177
18188
18203
18204
18206
18210
18220
18230
18257
18261
18274
18292
18293
18309
18332
18334
18336
18380
18382
18397
18412
18419
18443
18456
18458
18481
18499
18502
18842
18850
18857
18861
18862
18865
18874
18875
18881
18888
18900
18964
19933
20086
20105
20131
20457
20581
20593
20612
20656
20658
20670
20836
20860
20876
20927
20931
20969
21010
21012
21015
21052
21056
21057
21062
21086
21098
21100
21129
21131
21138
21170
21193
21199
21200
22149
22161
22168
22176
22180
22181
22213
22219
22228
22248
22262
22271
22275
22282
22305
22306
22308
22314
22349
22366
22383
22391
22410
22424
22427
22432
22444
22454
22474
22538
22548
22556
22584
22593
22610
22614
22616
22652
22653
22657
22663
22681
22688
22730
22734
22742
22763
22877
22947
23079
23082
24020
24412
24465
24487
24511
24521
24584
24586
24590
24598
24599
24606
24623
24660
24685
24693
24706
24709
24715
24719
24726
24735
24743
24791
24801
24813
24831
24835
24866
24897
24919
24946
24968
25462
25889
26406
26413
26421
26454
26505
26522
26542
26547
26548
26556
26557
26579
26774
26790
26798
26799
[ 246 ]
14301
17659
17685
17784
17800
17818
17840
17861
17935
17938
17942
17945
17961
17970
18024
18032
18034
18080
18081
18092
18093
18105
18215
18222
18233
18258
18269
18273
18291
18306
18313
18333
18363
18366
18387
18405
18409
18450
18457
18475
18484
18485
18488
18489
18490
18838
18844
18867
18879
18880
19113
19122
19929
20031
20087
20100
20108
20109
20110
20111
20159
20268
20463
20489
20564
20654
20682
20745
20761
20958
21019
21039
21043
21060
21069
21077
21108
21113
21150
21202
22146
22152
22183
22186
22215
22216
22263
22295
22317
22329
22337
22338
22396
22426
22446
22453
22479
22540
22570
22597
22703
22718
22723
22743
22752
22761
22849
22920
23008
23017
23106
23370
23381
23826
23838
23866
23903
23905
23909
23951
23964
23999
24104
24187
24394
24405
24411
24414
24460
24466
24508
24519
24532
24535
24544
24678
24680
24756
24815
24817
24823
24828
24838
24844
24868
24871
24873
24903
24934
24941
24979
24981
25356
25418
25463
25898
25903
26270
26271
26272
26402
26428
26431
26445
26471
26490
26499
26506
26513
26521
26566
26570
26573
26602
26615
26734
26750
26760
26761
26776
26789
[ 247 ]
14299
17691
17718
17833
17836
17839
17847
17850
17867
17910
17930
17957
17959
17997
18006
18019
18023
18037
18061
18074
18075
18091
18094
18100
18124
18202
18217
18227
18268
18324
18356
18360
18364
18365
18375
18445
18453
18482
18492
18864
18968
18969
20033
20037
20095
20133
20275
20281
20416
20426
20446
20453
20618
20663
20665
20685
20691
20735
20932
20942
20944
20961
20968
20983
20995
20997
21030
21033
21035
21104
21154
22174
22196
22315
22320
22325
22327
22330
22372
22377
22389
22415
22436
22441
22452
22462
22465
22468
22547
22768
22791
22792
22793
22799
22801
22805
22808
22819
22848
22850
22871
22876
22925
22931
22939
22944
22954
22999
23084
23085
23368
23382
23841
23849
23858
23868
23869
23879
23881
23883
23934
23952
23996
23997
24005
24027
24127
24128
24148
24199
24202
24211
24222
24236
24237
24242
24254
24319
24327
24329
24367
24407
24439
24518
24668
24727
24819
24837
24841
24842
24886
24898
24899
24954
24971
25055
25056
25057
25062
25063
25094
25116
25149
25178
25183
25202
25325
25342
25355
25357
25408
25426
25743
25755
25762
25890
26114
26168
26173
26216
26225
26228
26353
26411
26477
26528
26582
26583
26714
26763
26778
26780
26782
[ 248 ]
17684
17708
17727
17845
17853
17865
17885
17994
18017
18028
18049
18051
18088
18362
20016
20041
20112
20116
20270
20442
20508
20644
20693
20752
20764
20767
20977
20985
20987
21037
22318
22397
22412
22472
22824
22829
22874
22875
22904
22914
22955
22959
22961
22979
22980
22993
22996
23000
23002
23033
23058
23099
23327
23384
23385
23396
23407
23417
23422
23424
23512
23818
23827
23839
23842
23845
23862
23874
23885
23988
24007
24029
24030
24111
24136
24200
24223
24226
24229
24230
24231
24235
24264
24292
24298
24304
24318
24354
24366
24380
24395
24436
24659
24729
24872
24972
24983
24991
25052
25104
25119
25137
25141
25151
25172
25191
25196
25199
25203
25323
25352
25358
25372
25395
25405
25423
25430
25434
25445
25458
25466
25474
25476
25484
25501
25641
25648
25739
25754
25760
25778
25806
25813
25821
25822
25837
25870
25878
25892
25901
25904
26065
26069
26081
26087
26091
26112
26115
26118
26142
26143
26145
26172
26177
26179
26202
26210
26212
26226
26229
26235
26242
26284
26288
26292
26303
26325
26346
26350
26363
26365
26459
26526
26591
26599
26614
26694
26695
26701
26722
26748
[ 249 ]
17689
17719
17821
17947
19125
19412
20440
20512
20994
21034
22414
22789
22807
22865
22878
22885
22905
22985
23040
23043
23510
23515
23820
23857
24028
24036
24052
24109
24194
24220
24221
24238
24243
24258
24260
24306
24314
24370
24372
24379
24397
24435
24728
25005
25048
25053
25095
25097
25111
25126
25133
25136
25140
25163
25165
25175
25181
25194
25200
25204
25274
25278
25288
25331
25380
25401
25433
25451
25453
25481
25499
25511
25525
25526
25532
25542
25640
25719
25721
25727
25742
25747
25771
25802
25803
25810
25815
25829
25836
25848
25851
25862
25906
25910
26054
26068
26094
26108
26128
26130
26157
26169
26174
26175
26238
26243
26265
26314
26334
26665
26666
26671
26680
[ 250 ]
17692
18103
19130
22911
22960
22965
22966
23004
23408
23537
23875
23876
23989
24070
24098
24153
24267
24268
24310
24371
24994
25021
25040
25100
25134
25206
25209
25210
25221
25223
25267
25273
25305
25306
25316
25335
25339
25379
25384
25450
25520
25529
25533
25534
25540
25580
25602
25614
25627
25655
25665
25688
25690
25728
25738
25791
25831
25841
25849
25850
25857
25859
25875
25893
25917
25933
25937
25943
26072
26107
26109
26110
26155
26158
26165
26166
26290
26324
26398
26684
26686
26691
26736
[ 251 ]
22888
22892
25043
25046
25051
25072
25218
25220
25257
25260
25271
25381
25382
25493
25504
25505
25515
25544
25550
25551
25555
25557
25577
25585
25589
25596
25612
25630
25658
25666
25676
25677
25680
25683
25691
25717
25768
25777
25789
25797
25835
25842
25923
25935
25947
25959
25962
26044
26060
26070
26321
26322
26678
26685
[ 252 ]
25033
25035
25045
25236
25240
25270
25541
25552
25553
25554
25611
25616
25621
25634
25636
25652
25671
25882
25939
25948
25950
25974
25998
26162
[ 253 ]
25242
25503
25564
25566
25568
25635
25701
25989
25996
[ 254 ]
25027
25255
25670
25995
[ 263 ]
2054
[ 265 ]
2085
[ 267 ]
12542
[ 268 ]
12384
12385
[ 269 ]
12338
12341
12386
12387
12546
[ 270 ]
12342
12343
12348
12353
12355
12381
12395
12407
12510
12551
12552
[ 271 ]
12234
12235
12251
12259
12260
12403
12535
[ 272 ]
12227
12241
12258
12262
12272
12393
12411
12508
12548
[ 273 ]
12265
12520
12522
12527
12538
18132
22517
22520
26438
[ 274 ]
12512
21084
21117
21169
22363
22514
22518
22522
22564
24795
26427
26435
26437
[ 275 ]
12526
16349
16357
16363
18134
18138
18141
18186
18187
18199
18245
18246
18247
18282
18295
18435
18477
18525
20865
20867
20882
21085
21177
22235
22261
22355
22358
22491
22507
22512
22524
22525
22527
22528
22529
22575
22594
22632
22634
22659
22660
24420
24424
24625
24714
24744
24763
24772
24775
24779
24783
24794
26274
26424
26432
26436
26441
26447
26502
26797
[ 276 ]
14290
16344
16355
16361
17918
18137
18183
18194
18255
18307
18345
18353
18434
18437
18479
18500
18503
18510
18511
18516
18519
18796
20859
20863
20895
20897
20899
20904
20905
20913
20916
21025
21046
21133
21139
21142
22150
22151
22155
22156
22158
22229
22232
22249
22250
22254
22269
22276
22303
22351
22352
22353
22368
22378
22382
22458
22461
22489
22493
22494
22497
22498
22500
22531
22536
22585
22587
22591
22607
22637
22692
22709
22728
23015
23912
23956
24423
24426
24450
24459
24529
24548
24608
24609
24624
24688
24699
24722
24740
24741
24751
24752
24757
24759
24777
24781
24786
24789
24796
24821
24834
24892
24915
24921
24928
24958
26275
26416
26429
26510
26511
26755
26795
[ 277 ]
14291
16358
17654
17662
17799
17905
17928
17940
17973
18013
18050
18079
18112
18120
18128
18136
18180
18221
18254
18256
18267
18275
18343
18346
18385
18402
18414
18433
18462
18463
18467
18496
18506
18518
18794
18843
18869
19861
20271
20276
20454
20458
20858
20881
20909
20914
20925
20929
20930
20946
21045
21047
21053
21071
21078
21080
21088
21109
21130
21132
21141
21149
21156
21186
21187
21198
22153
22172
22212
22224
22246
22259
22273
22286
22302
22379
22381
22416
22428
22439
22443
22445
22448
22451
22455
22471
22549
22586
22606
22608
22611
22619
22661
22710
22713
22756
22758
22936
22949
23014
23900
23923
23927
23970
24014
24323
24468
24483
24501
24553
24562
24564
24573
24576
24579
24612
24616
24620
24621
24630
24637
24646
24654
24656
24674
24679
24682
24687
24691
24758
24784
24790
24806
24809
24820
24827
24840
24845
24859
24863
24869
24870
24907
24936
24938
25180
26279
26412
26430
26448
26466
26469
26470
26501
26503
26504
26523
26525
26538
26539
26563
26564
[ 278 ]
17792
17817
17908
17939
17943
17944
17955
17960
17964
18007
18041
18043
18058
18085
18086
18122
18196
18232
18270
18317
18325
18358
18377
18393
18415
18428
18447
18468
18491
18793
18815
18819
18889
20063
20090
20278
20455
20572
20634
20664
20690
20694
20756
20883
20892
20893
20906
20947
20948
20959
20960
20975
20976
20996
21003
21017
21027
21036
21044
21048
21051
21118
21140
21160
21201
22148
22179
22182
22199
22217
22221
22258
22299
22301
22321
22331
22336
22342
22344
22390
22406
22421
22442
22447
22460
22464
22467
22671
22677
22683
22712
22725
22744
22779
22827
22928
22934
22945
22950
22982
23007
23012
23026
23076
23078
23098
23126
23840
23865
23880
23888
23954
23960
23961
23973
23976
24024
24203
24279
24332
24350
24445
24451
24453
24455
24472
24485
24509
24517
24520
24542
24567
24588
24600
24622
24652
24658
24663
24664
24665
24712
24730
24732
24736
24812
24814
24847
24861
24891
24902
24906
24918
24932
24980
25146
25361
25403
25414
25420
25824
25891
25896
26192
26262
26297
26354
26401
26403
26404
26414
26472
26480
26484
26527
26529
26553
26572
26576
26600
26607
26623
26718
26741
26781
[ 279 ]
14300
14302
14307
17660
17749
17788
17790
17822
17837
17851
17864
17916
17953
17958
17962
18084
18116
18216
18308
18396
18421
18431
18440
18441
18460
18507
18508
20122
20273
20939
20950
20967
20984
20993
21001
21002
21016
21026
21038
21065
21075
21076
21107
21155
22316
22324
22333
22335
22767
22777
22795
22809
22923
22932
22958
22973
22978
22988
23009
23039
23372
23379
23808
23867
23959
23985
23986
24016
24017
24018
24026
24131
24137
24145
24196
24217
24219
24285
24316
24328
24342
24348
24351
24376
24392
24400
24408
24417
24432
24457
24461
24554
24557
24575
24648
24733
24830
24855
24939
24984
24993
25142
25150
25171
25179
25192
25195
25310
25324
25343
25344
25394
25404
25411
25419
25421
25424
25761
25820
25867
25888
25899
26105
26167
26182
26183
26256
26260
26261
26263
26283
26326
26352
26371
26376
26383
26390
26457
26465
26476
26518
26520
26524
26533
26552
26596
26604
26609
26617
26681
26719
26733
26740
26751
26786
[ 280 ]
14298
17696
17711
17843
17936
18090
18098
20507
20941
20965
20974
21000
21029
21063
22796
22870
22882
23003
23037
23038
23391
23511
23806
23822
23825
23831
23834
23884
23897
23977
23994
24006
24023
24032
24061
24062
24069
24097
24133
24142
24154
24159
24206
24212
24228
24239
24245
24246
24255
24263
24265
24273
24278
24284
24296
24299
24307
24313
24322
24346
24398
24402
24856
24867
24901
24969
24986
25054
25059
25061
25103
25105
25107
25121
25144
25145
25152
25176
25182
25198
25312
25314
25321
25330
25354
25366
25396
25406
25432
25444
25468
25471
25486
25492
25603
25663
25694
25750
25752
25764
25776
25872
25873
25895
26051
26082
26086
26099
26113
26132
26189
26208
26213
26253
26281
26295
26327
26370
26381
26386
26393
26473
26497
26517
26550
26618
26649
26672
26673
26696
26699
26712
26721
26723
26737
26738
26746
26779
[ 281 ]
17993
22423
22853
22863
22907
22967
22981
22983
22987
23005
23006
23399
23405
23412
23829
23877
24112
24177
24234
24288
24290
24305
24308
24311
24349
24353
24361
24364
24365
24401
24999
25003
25007
25017
25058
25083
25085
25114
25117
25125
25127
25156
25160
25164
25168
25170
25185
25264
25280
25289
25311
25318
25319
25326
25341
25348
25364
25392
25429
25446
25472
25473
25489
25495
25497
25508
25582
25654
25716
25722
25756
25759
25767
25770
25781
25784
25809
25819
25825
25838
25853
25916
26080
26097
26123
26124
26151
26176
26180
26187
26194
26204
26205
26207
26219
26223
26234
26241
26246
26250
26286
26287
26289
26293
26299
26300
26316
26317
26328
26331
26389
26612
26619
26644
26645
26648
26658
26668
26674
26675
26682
26707
26710
26725
[ 282 ]
20438
22906
23001
23042
23535
23872
23873
24037
24178
24340
24998
25000
25004
25086
25143
25154
25169
25186
25208
25249
25262
25272
25275
25283
25302
25304
25338
25346
25378
25388
25390
25400
25448
25512
25543
25548
25556
25572
25583
25601
25605
25615
25618
25626
25643
25657
25664
25692
25724
25725
25726
25737
25751
25826
25834
25843
25894
25915
25965
25971
25975
26103
26121
26139
26188
26193
26195
26206
26294
26306
26310
26318
26628
26661
26667
26698
26711
[ 283 ]
23041
24058
24073
25099
25239
25269
25336
25337
25509
25513
25516
25569
25571
25573
25592
25593
25599
25606
25668
25702
25706
25713
25775
25828
25840
25854
25860
25880
25884
25922
25960
25961
26045
26153
26154
26161
26164
26197
26200
26323
[ 284 ]
25044
25245
25254
25268
25284
25386
25536
25547
25620
25678
25687
25697
25698
25710
25711
25729
[ 285 ]
24040
25030
25031
25244
25251
25926
[ 286 ]
25980
[ 296 ]
2053
[ 298 ]
2046
2061
[ 299 ]
2044
2062
2094
12317
12327
12336
12445
[ 300 ]
2063
2064
12325
[ 301 ]
2084
12237
12352
12364
12377
12383
12405
[ 302 ]
12294
12301
12305
12363
12380
12547
12554
[ 303 ]
12236
12244
12245
12269
12303
12308
12344
12356
12359
12402
12406
12410
12509
12549
12550
12553
[ 304 ]
12229
12231
12233
12261
12266
12300
12409
12539
[ 305 ]
12523
22357
22506
22523
[ 306 ]
12478
12524
14059
16341
16348
16352
18527
20868
21173
21178
22364
22365
22457
22565
24761
26426
[ 307 ]
12482
14057
14061
16334
16337
16362
18135
18252
18253
18277
18278
20878
20886
20902
20918
21137
21176
21204
22178
22203
22204
22251
22252
22354
22361
22488
22496
22501
22502
22503
22515
24490
24607
24635
24686
24711
24770
24778
24945
26450
[ 308 ]
12484
14047
16347
16359
18142
18143
18154
18171
18181
18182
18184
18265
18288
18289
18290
18298
18303
18304
18388
18783
18795
18802
18852
18886
20862
20869
20888
20901
20920
20928
21082
21093
21159
21163
21164
21166
21179
21184
21189
21194
22162
22164
22167
22185
22231
22287
22350
22484
22492
22544
22573
22672
22737
23018
23921
23922
23939
24004
24324
24443
24471
24473
24478
24489
24492
24552
24568
24602
24610
24626
24629
24633
24642
24676
24683
24692
24698
24704
24705
24792
24922
24923
24937
24948
24957
24960
24962
24965
26415
26439
26440
26509
26532
26536
26540
26544
26545
26562
[ 309 ]
14292
16368
17699
17793
17797
17912
17920
17924
18121
18152
18173
18174
18175
18176
18225
18237
18264
18271
18312
18316
18331
18339
18342
18425
18464
18474
18486
18514
18517
18772
18797
18804
18805
18817
18823
18836
18866
20456
20891
20940
20953
21032
21079
21081
21095
21144
21165
21192
22157
22163
22165
22187
22205
22206
22223
22230
22247
22292
22296
22300
22376
22407
22429
22431
22450
22459
22530
22533
22539
22776
22778
23013
23127
23911
23924
23935
23942
23943
23944
23948
23963
24003
24013
24431
24441
24444
24469
24476
24477
24479
24498
24500
24505
24526
24530
24565
24587
24619
24627
24634
24641
24681
24689
24697
24703
24721
24750
24760
24762
24782
24785
24803
24804
24822
24865
24887
24926
24940
24947
24961
24964
26377
26391
26407
26481
26516
26531
26537
26560
26765
26770
[ 310 ]
13898
14253
14277
17791
17838
17902
17906
17925
18101
18114
18115
18140
18155
18207
18228
18319
18392
18427
18438
18469
18471
18476
18814
20933
20938
20943
20971
20999
21005
21013
21024
21031
21059
21070
21153
22147
22192
22194
22211
22214
22222
22257
22267
22304
22309
22343
22392
22535
22541
22691
22922
23025
23860
23864
23931
23936
23969
23972
23974
24000
24009
24105
24106
24151
24160
24186
24188
24205
24241
24410
24416
24456
24462
24463
24474
24482
24506
24510
24523
24561
24574
24589
24638
24644
24651
24667
24669
24690
24839
24849
24881
24908
24917
24925
24927
24949
25115
25415
25443
25461
25816
26259
26264
26361
26367
26378
26409
26485
26486
26549
26554
26561
26567
26578
26584
26608
26759
26787
26788
[ 311 ]
14089
14284
14308
17787
17834
17835
17866
17901
17915
17923
17933
18096
18104
18355
18399
18401
18812
18813
18826
20970
21023
21041
22200
22312
22319
22395
22402
22438
22823
22929
22937
22989
23020
23029
23383
23891
23904
23916
23990
24033
24063
24064
24107
24146
24193
24204
24213
24215
24247
24252
24272
24283
24356
24368
24386
24390
24396
24428
24666
24832
24852
24853
24882
24909
24910
24913
24970
24974
24978
25088
25153
25197
25322
25369
25409
25410
25412
25441
25487
25763
26178
26185
26191
26211
26252
26258
26332
26351
26394
26464
26479
26551
26555
26568
26569
26575
26601
26603
26652
26749
[ 312 ]
18495
20448
20957
20963
20964
20986
21021
21061
21066
22986
23035
23387
23429
23854
23979
23983
23984
23987
24035
24065
24108
24121
24158
24162
24182
24183
24184
24190
24209
24210
24214
24253
24256
24275
24277
24287
24289
24301
24312
24333
24369
24378
24381
24418
24515
24516
24737
24860
24988
24989
25010
25074
25077
25110
25148
25161
25187
25188
25189
25190
25309
25359
25374
25407
25427
25431
25442
25464
25483
25490
25494
25745
25746
25748
25782
25823
25970
26075
26227
26249
26251
26255
26302
26329
26333
26336
26343
26373
26374
26375
26387
26474
26577
26590
26593
26613
26650
26656
26709
26735
26785
[ 313 ]
14303
22869
23030
23507
23823
23878
23981
24068
24071
24094
24095
24110
24117
24118
24124
24140
24156
24157
24208
24227
24240
24294
24302
24321
24336
24347
24355
24360
24363
24373
24377
24384
24385
24843
24987
24992
24995
25002
25015
25016
25018
25081
25096
25113
25122
25129
25130
25155
25327
25328
25332
25347
25349
25365
25376
25377
25387
25470
25488
25604
25613
25741
25749
25779
26096
26125
26129
26135
26141
26218
26237
26257
26296
26312
26335
26340
26632
26633
26636
26654
26655
26669
26704
26706
26724
26742
[ 314 ]
14219
24056
24093
24113
24120
24132
24173
24257
24269
24271
24996
25013
25080
25109
25128
25158
25279
25281
25282
25301
25307
25383
25449
25528
25538
25587
25608
25628
25650
25667
25705
25714
25758
25783
25861
26073
26122
26136
26156
26186
26341
26368
26642
26657
[ 315 ]
24081
24119
24139
24997
25006
25019
25022
25023
25024
25037
25038
25246
25259
25261
25480
25521
25530
25546
25622
25718
25733
25942
25963
25964
25978
26138
26198
26201
26305
26309
26646
[ 316 ]
24086
25567
25610
25703
25708
25973
26319
[ 317 ]
25565
25675
25700
25997
[ 318 ]
25709
25982
[ 325 ]
1756
[ 327 ]
2027
[ 328 ]
2023
2048
[ 329 ]
2017
2025
2036
12329
[ 330 ]
2015
2030
2102
[ 331 ]
2029
2060
12335
[ 332 ]
1990
2080
2093
2112
2139
12311
12564
[ 333 ]
2114
12310
12340
12358
12365
12444
12541
[ 334 ]
12297
12314
12354
12379
12544
[ 335 ]
12243
12246
12247
12250
12253
12254
12278
12290
12362
12436
12537
[ 336 ]
12242
12252
12268
12280
12283
12506
12532
12556
12560
21175
[ 337 ]
12263
12370
12413
12438
12505
22574
[ 338 ]
22504
23920
[ 339 ]
17661
18191
18193
18286
20879
21174
21185
22278
22362
22485
22487
23919
24467
24499
24581
24592
24684
24767
24768
24773
24793
24959
26452
[ 340 ]
14046
14076
17904
17914
18157
18166
18195
18238
18296
18302
18315
20877
20900
20934
21083
21167
21181
21182
22159
22225
22245
22256
22477
22486
22495
22537
23915
23918
23937
23998
24015
24413
24425
24442
24449
24470
24475
24480
24491
24502
24531
24578
24605
24675
24695
24710
24713
24774
24788
24800
24807
24808
24826
24889
24890
24896
24924
24943
24966
25370
26449
26530
26541
[ 341 ]
13901
14110
14161
14166
14209
14246
14263
14293
17841
18349
18417
18430
18472
18789
18792
18798
18822
20123
20907
20949
20954
20998
21050
21089
21196
21205
22154
22160
22166
22288
22297
22393
22418
22545
23010
23917
23926
23938
23941
23945
23966
24001
24446
24454
24458
24481
24488
24504
24512
24522
24527
24534
24571
24577
24593
24631
24671
24672
24696
24700
24702
24708
24724
24755
24894
24930
24931
24942
24955
26405
26408
26455
26456
26512
26574
26606
26730
26744
26757
26764
26783
[ 342 ]
14044
14205
14278
14295
14297
14304
14309
17656
17658
17701
17921
18125
18159
18226
18459
18461
18809
18820
20896
20936
20937
20945
20951
22144
22145
22188
22190
22191
22227
22285
22298
22311
22449
22466
23011
23028
23892
23893
23894
23910
23930
23967
23968
23982
24002
24008
24025
24126
24326
24331
24419
24429
24447
24497
24525
24537
24545
24559
24595
24597
24603
24615
24617
24618
24650
24661
24662
24673
24731
24816
24848
24874
24912
24933
24975
24977
26248
26278
26282
26348
26349
26356
26399
26443
26468
26482
26491
26508
26571
26624
26630
26745
26753
[ 343 ]
14165
14197
14244
14305
17926
18110
18398
18426
20973
21014
21020
22195
22202
22476
22976
23031
23886
23887
23898
23899
23995
24010
24103
24122
24129
24135
24143
24149
24150
24155
24161
24198
24207
24218
24274
24291
24320
24334
24343
24399
24409
24427
24437
24452
24464
24639
24850
24884
25360
26146
26184
26239
26280
26338
26345
26355
26358
26366
26369
26372
26379
26380
26384
26460
26467
26514
26559
26594
26689
26713
26717
26720
26743
26758
26762
[ 344 ]
14203
14227
17663
17678
17848
18420
21042
23036
23819
23889
23890
23992
24044
24045
24114
24138
24144
24163
24165
24174
24176
24295
24297
24341
24362
24374
24383
24387
24391
24393
24404
24647
24976
24985
24990
25090
25108
25112
25124
25138
25147
25329
25351
25373
25391
25459
26117
26232
26285
26360
26362
26364
26392
26395
26400
26515
26581
26595
26598
26610
26611
26620
26637
26641
26697
26731
[ 345 ]
24048
24059
24066
24074
24075
24090
24091
24096
24102
24116
24168
24179
24251
24338
24357
24389
25078
25084
25089
25120
25131
25201
25219
25308
25313
25340
25766
25968
26053
26126
26127
26133
26137
26140
26190
26254
26301
26342
26494
26638
26639
26643
26653
26715
26726
26728
[ 346 ]
24167
24303
24388
25011
25079
25092
25166
25263
25265
25266
25491
25514
25578
25661
25769
25977
26062
26131
26244
26307
26308
26337
26359
26388
26634
26651
[ 347 ]
24057
24072
24080
24089
24092
24166
24309
24337
25020
25034
25039
25217
25345
25389
25693
25707
25715
25757
25966
25967
25979
26046
26304
26315
26320
26660
[ 348 ]
24082
24266
25385
25575
25588
25674
25712
[ 349 ]
25028
[ 357 ]
1754
[ 358 ]
1747
1755
1982
[ 359 ]
2022
2137
[ 360 ]
1889
1939
2007
2026
2051
2057
[ 361 ]
1635
1652
1707
1710
1718
2042
2055
2058
2074
2136
[ 362 ]
1657
1708
1737
1740
2028
2031
2052
2059
2069
2073
2075
2108
12324
12328
12330
12351
[ 363 ]
1541
2039
2070
2079
2096
2098
2106
2117
2123
[ 364 ]
2012
2091
2097
2099
2120
12334
[ 365 ]
2104
12307
12309
12313
12315
12361
12366
12378
12487
[ 366 ]
2111
12368
12563
[ 367 ]
11269
12255
12257
12291
12367
12375
12412
12562
[ 368 ]
12264
12295
12299
12369
12491
[ 369 ]
12222
12277
12281
12282
[ 370 ]
22505
24551
24717
[ 371 ]
12216
12267
12486
12580
13996
13997
14048
14146
16367
18161
18162
18189
18285
18528
18853
21183
22184
24012
24604
24754
26417
[ 372 ]
13903
13904
13928
13950
14211
14213
16335
18146
18200
18283
18389
18395
18504
20459
20898
20952
22546
23913
23914
23947
24421
24550
24566
24572
24582
24701
24718
24734
24802
24846
24858
24916
27089
[ 373 ]
13905
13921
13937
13945
14119
14210
14212
14245
14296
16346
17907
17913
17922
17931
18170
18272
18276
18287
18300
18418
18442
18788
18790
18808
20890
20894
21087
21210
21360
22170
22197
22207
22310
23946
23955
24406
24496
24524
24539
24547
24563
24569
24591
24594
24613
24653
24747
24766
24880
24893
26534
[ 374 ]
13918
13948
13963
13967
14071
14078
14081
14093
14105
14194
14198
14201
14202
14266
14288
17657
17874
17880
17927
18106
18113
18439
18780
18807
18810
18818
18831
18835
18839
21058
21197
22193
22201
22542
23032
23088
23953
23975
24034
24050
24280
24286
24494
24495
24503
24632
24640
24720
24854
24929
26347
26451
26483
26519
26585
26586
26702
26756
[ 375 ]
13983
14073
14083
14090
14094
14111
14196
14208
14235
17882
18771
18774
18837
22963
22995
23087
23895
23962
24180
24185
24201
24276
24317
24335
24344
24415
24434
24541
24543
24614
25765
26330
26339
26357
26463
26488
26495
26500
26747
[ 376 ]
22992
23896
23929
23965
24049
24054
24134
24175
24181
24195
24250
24282
24300
24345
24352
25118
26382
26498
26705
26727
[ 377 ]
14204
17894
24041
24047
24067
24141
24172
24189
24224
24315
24339
25014
25132
25375
26291
26626
26703
[ 378 ]
24077
24079
24085
24087
24088
24115
24261
25076
25659
25972
[ 379 ]
24078
24084
25091
25539
[ 380 ]
25001
[ 389 ]
1702
1750
[ 390 ]
1703
1760
1761
1843
[ 391 ]
1684
1725
1759
1793
1809
1936
2018
2020
2024
[ 392 ]
1551
1553
1647
1651
1653
1697
1735
1838
1842
1845
1878
1883
1888
1938
1940
1963
2019
2130
[ 393 ]
1548
1554
1631
1649
1656
1687
1698
1732
1733
1870
1884
2014
2040
2089
2095
2124
2125
[ 394 ]
1461
1465
1646
1658
1668
1715
1873
1986
1995
2037
2047
2072
2076
2086
2122
2129
[ 395 ]
1547
1587
1589
1734
1739
1866
2011
2013
2033
2034
2066
2071
2078
2081
2101
2103
2119
2140
12312
12350
[ 396 ]
1496
1992
2082
2083
2092
12323
12349
12404
[ 397 ]
1588
2068
2113
12316
12401
12555
[ 398 ]
12248
12304
12488
12533
[ 399 ]
12270
12271
12371
12373
12440
12441
12452
12490
[ 400 ]
12155
12273
12279
12298
12374
[ 401 ]
12461
12480
23925
26939
27227
[ 402 ]
12289
14056
14060
16366
16372
16386
18639
27034
[ 403 ]
12218
12582
13940
13943
14069
14101
16338
16399
16455
21168
21203
24580
[ 404 ]
12211
12217
12457
13908
13924
13931
13933
14041
14042
14072
14141
14162
16333
16343
16369
16453
16913
18165
18198
18556
18636
18640
18785
18799
18821
22210
24585
24694
26869
[ 405 ]
13899
13914
13925
13988
14034
14077
14082
14106
14132
14164
14168
14261
14281
14286
14294
16451
16454
17700
17868
17869
18099
18150
18729
18806
21207
23027
24011
24513
24514
24540
24825
27156
[ 406 ]
13917
13953
13964
14099
14117
14170
14193
14214
14254
17879
17881
17899
17929
18733
20955
21216
22125
22129
22189
22534
22543
24125
24533
24596
26535
27508
[ 407 ]
13979
14080
14095
14097
14114
14175
14186
14233
14287
17884
17900
18833
23024
23978
24043
24164
24433
24536
24546
24601
26631
26716
[ 408 ]
14084
14113
14216
14217
14229
14239
17877
22002
22127
23980
24046
24051
24053
24055
24099
24130
24171
24293
25460
25780
26492
26496
26621
26622
26629
[ 409 ]
22991
24042
24083
24123
25402
25976
26493
26635
[ 410 ]
14222
24076
[ 412 ]
25036
[ 420 ]
1751
[ 421 ]
1727
[ 422 ]
1520
1726
1728
1834
1892
1916
[ 423 ]
1519
1637
1638
1691
1700
1701
1723
1746
1749
1914
[ 424 ]
1430
1521
1550
1552
1560
1564
1584
1602
1629
1640
1642
1665
1666
1669
1672
1674
1695
1722
1729
1817
1824
1894
1974
2021
[ 425 ]
1448
1562
1566
1576
1600
1627
1644
1648
1650
1663
1679
1694
1709
1712
1716
1730
1743
1886
1930
1933
1985
1997
1998
2002
2038
2090
2135
3351
[ 426 ]
1543
1573
1578
1593
1599
1608
1621
1622
1632
1633
1661
1671
1677
1736
1741
1849
1851
1877
1954
2006
2032
2043
2067
2088
2105
2132
[ 427 ]
1436
1437
1522
1591
1592
1596
1659
1784
1850
1988
2001
2003
2016
2035
2100
2107
2128
2158
12337
[ 428 ]
1419
1523
1542
2004
2077
2110
2121
12286
12318
12489
[ 429 ]
1418
1537
1539
1991
12162
12306
29439
[ 430 ]
2306
9207
12202
12288
[ 431 ]
7313
11360
12082
12154
12293
12426
12429
12430
12442
12566
[ 432 ]
6002
11079
11082
11259
11263
12159
12274
12296
12372
12400
12437
12540
22105
[ 433 ]
1318
11813
12460
12521
12567
18534
26996
27023
28872
[ 434 ]
12219
12224
14053
14143
14148
16320
18530
18539
27015
27063
29411
[ 435 ]
12581
13942
13954
13955
13957
14021
14102
14133
16336
16400
16708
16741
18169
18549
18552
18786
18803
21221
21543
24765
26853
26883
26897
26913
26937
26947
27582
[ 436 ]
12458
13902
13910
13923
13926
13927
13930
13944
13959
13961
13962
13987
14037
14039
14075
14130
16382
16456
18163
18168
18560
18579
18620
18659
21206
21679
22114
22122
24422
24570
24963
26754
26810
26812
26873
26892
26925
26966
26969
26982
27162
27882
[ 437 ]
13895
13909
13911
13920
13929
13932
13958
13969
13984
13986
14098
14107
14116
14123
14129
14140
14142
14163
14178
14199
14237
14268
14279
16390
16753
17402
17903
18429
18656
18668
18724
18828
18829
24528
24670
26811
26825
26826
26835
26923
26968
27577
27584
27873
27883
[ 438 ]
13070
13912
13919
13938
14079
14086
14118
14169
14206
14207
14240
14248
14257
14259
14285
18107
18151
18787
18824
22141
24281
24560
24677
26625
26805
27494
27969
27977
[ 439 ]
13968
13980
13981
13985
13989
14092
14115
14121
14187
14195
14200
14215
14228
14234
14262
14274
17873
17878
18108
18816
22143
22990
27918
27921
27995
[ 440 ]
14091
14179
14218
14224
14226
14230
14231
17655
17889
17892
17898
22142
24100
27945
27948
27949
27950
[ 441 ]
14221
14232
14275
24060
24101
25009
25367
27925
[ 442 ]
14220
24169
25012
[ 452 ]
1830
[ 453 ]
1753
1802
3558
[ 454 ]
1752
1814
1833
1840
1869
1890
1893
1921
[ 455 ]
1683
1704
1757
1832
1841
1846
1881
1891
1904
1913
1984
2009
2010
2595
2597
3355
[ 456 ]
1422
1455
1579
1601
1605
1636
1641
1682
1685
1699
1706
1744
1811
1836
1839
1868
1871
1875
1885
1897
1905
1911
1979
2126
2134
2731
5488
[ 457 ]
1467
1518
1555
1558
1561
1565
1574
1580
1586
1613
1614
1616
1624
1626
1645
1686
1688
1690
1696
1711
1714
1719
1720
1785
1863
1895
1901
1926
1937
2008
2045
2087
2127
2131
2162
5492
[ 458 ]
1423
1460
1478
1479
1483
1590
1603
1604
1610
1655
1660
1670
1742
1862
1872
1928
2065
2161
3454
3855
5475
12322
12333
[ 459 ]
1136
1180
1402
1432
1497
1525
1620
1738
1782
1858
1860
1865
1999
2115
2116
5413
5444
5515
5570
[ 460 ]
1427
1468
1533
1538
1540
1572
1861
1987
1993
1994
2145
2320
5207
[ 461 ]
1470
1492
1536
2109
5826
5946
5995
7315
10780
12320
12398
12425
[ 462 ]
6004
7152
10375
10845
11290
12158
12319
12399
12414
12428
12558
28996
29039
29329
[ 463 ]
5864
5884
5953
5974
10255
10426
10835
11820
12157
12165
12275
12284
12376
12465
12559
27103
[ 464 ]
9736
10879
11258
11261
11262
11805
12276
12285
12292
12431
27094
[ 465 ]
5814
10179
11188
11233
11260
11291
11651
11654
11803
11818
12048
12119
12166
12453
12463
16282
16305
16319
16321
16322
16389
21572
22107
26993
26999
27001
27019
27025
27026
27047
27071
27090
27139
27241
28129
29428
[ 466 ]
5798
5799
5800
5817
5849
11454
11604
11683
12220
12462
12466
12477
12483
12570
13157
13915
13946
13998
16377
16379
16383
16385
16737
18156
18535
18538
18642
18664
21577
21578
22111
26845
26850
26920
26940
26942
26944
26987
27020
27029
27051
27059
27060
27080
28773
29427
[ 467 ]
12208
12215
12223
13051
13951
14010
14051
14136
14159
15327
15336
15822
16342
16457
16679
16742
16744
18148
18540
18541
18599
18637
18652
18781
21212
21584
21593
21680
21778
21940
22096
22099
22100
24549
26815
26851
26854
26919
26926
26928
26943
26961
26962
27070
27147
27274
27501
27505
27579
27831
27901
27978
28291
28757
28816
29794
[ 468 ]
12968
12976
13153
13231
13232
13233
13237
13288
13906
13907
13922
13941
14019
14036
14038
14158
14264
14267
14487
14585
14665
15303
15305
15603
16374
16392
16432
16452
16459
16655
17455
18160
18164
18585
18643
18655
18851
21214
21769
21936
22097
26806
26809
26818
26823
26830
26832
26836
26859
26880
26911
26914
26915
26924
26927
27488
27590
27675
27802
27860
[ 469 ]
11530
13103
13913
13936
13960
13971
13976
13977
14045
14065
14067
14074
14131
14171
14191
14273
14469
15432
16447
16636
16669
16841
16890
17045
17106
17291
17292
17328
17511
17538
17553
17580
18149
18558
18644
18657
18665
18666
18669
18744
18747
18775
18778
21362
21834
22041
22123
22130
26822
26833
26847
26867
26877
26889
26903
26906
26912
26922
26933
26952
27500
27759
27840
27841
27862
27987
27997
28001
28036
29381
[ 470 ]
12960
13039
13842
13863
13900
13939
13949
13952
14087
14100
14104
14108
14172
14242
14247
14249
14276
14866
15502
16610
16675
16676
16899
17325
17650
17891
18582
18718
18737
18754
18776
18825
21229
21363
21510
21981
21993
22124
24538
26900
26907
27360
27507
27510
27896
27913
27919
27966
27968
27971
29740
[ 471 ]
13510
13965
14070
14112
14125
14177
14243
14256
14272
14283
14565
14573
16648
17050
17458
17883
17886
18739
18811
18827
22004
22005
23034
27312
27471
27914
27926
28000
29615
[ 472 ]
13060
13298
13511
14085
14225
14258
17344
22003
27937
27938
27996
[ 473 ]
13414
14564
14680
14826
18834
24170
25008
26627
27308
[ 474 ]
13415
[ 475 ]
24270
[ 484 ]
1803
1805
1827
1917
1920
[ 485 ]
1801
1807
1815
1831
[ 486 ]
1693
1748
1789
1806
1808
1810
1819
1918
1919
1922
2598
2660
[ 487 ]
1163
1676
1705
1758
1791
1816
1882
1896
1915
1932
2359
2514
3345
3971
4630
[ 488 ]
673
674
1444
1445
1450
1549
1639
1678
1680
1692
1731
1745
1763
1770
1786
1812
1835
1912
1925
1929
1934
1947
1948
1962
1971
1981
1983
2050
2486
2537
2541
2582
2591
2620
2653
3255
3294
3353
5487
[ 489 ]
397
604
1442
1443
1449
1466
1481
1544
1559
1581
1582
1597
1611
1619
1625
1628
1630
1634
1643
1654
1667
1673
1681
1689
1780
1852
1855
1857
1864
1887
1899
1906
1907
1924
1927
1935
1946
1949
1970
1973
1975
1976
1980
2000
2138
2420
2532
2590
3427
5527
[ 490 ]
581
1428
1431
1433
1435
1438
1439
1446
1459
1463
1475
1480
1517
1528
1530
1556
1570
1577
1583
1585
1594
1598
1623
1662
1713
1856
1876
1951
1977
1978
1989
2155
2367
2419
2533
2887
3261
3264
3295
3533
3907
3937
4060
4657
5460
5917
6076
8298
[ 491 ]
505
578
1473
1474
1557
1571
1859
1969
2118
2159
2160
2326
2416
3215
3511
3602
3712
3964
4005
5418
5423
5439
5477
5478
5564
5571
6023
[ 492 ]
1357
1416
1469
1477
1535
1575
1950
2151
2426
3797
3880
4009
4078
5437
5442
5539
5581
5916
5964
5979
6063
6080
6862
7798
29436
29440
[ 493 ]
503
656
1182
4278
4901
5912
5915
5921
5942
5951
5952
5973
5982
5983
6014
6016
6055
6108
6866
7331
7789
9473
11868
12332
12434
29036
29108
29190
29565
[ 494 ]
2150
4065
4164
5828
5938
5997
6006
7108
9442
9764
10373
10421
10621
11867
12103
12156
12187
12203
12415
12439
12450
28652
29046
29109
29192
[ 495 ]
1489
3610
4193
4285
7130
7196
10784
11267
11271
11272
11274
11292
11303
11306
11348
11823
11830
12059
12064
12087
12178
12446
12557
16323
16324
27238
29115
29193
29408
29597
[ 496 ]
1491
2449
4190
4197
4390
6134
9737
9772
10321
10371
10477
10899
11097
11103
11264
11265
11268
11337
11347
11350
11541
11580
11644
11648
11709
11739
11755
11809
11812
11822
11842
11946
11951
11973
11980
12031
12071
12076
12117
12148
12180
12228
12302
12455
16288
16313
16315
21575
27018
27095
27102
27240
27270
29069
29112
29194
29299
29429
29430
29566
29567
29574
[ 497 ]
1291
5855
5858
6128
6133
6205
6207
6628
7719
8563
9521
9580
9970
10180
11055
11196
11220
11278
11340
11352
11354
11357
11415
11449
11552
11563
11590
11599
11627
11629
11672
11736
11791
11816
11836
12066
12137
12146
12214
12481
12568
14052
15807
16269
16316
16378
16932
18533
18605
21554
21579
22110
26848
26886
26938
26945
26971
27007
27016
27021
27035
27042
27076
27098
27105
27140
27167
27202
27630
28379
28992
29067
29244
29363
[ 498 ]
208
5796
5816
9575
9799
11107
11116
11179
11363
11394
11412
11425
11426
11439
11584
11674
11810
12045
12459
13339
13690
14050
14058
14144
14145
15509
15842
15867
15884
16301
16376
16912
16920
17276
18545
18548
18553
18555
18587
18622
21555
21562
21570
21573
21576
21677
21682
21760
22108
26882
26930
26932
26946
26975
26976
26985
27000
27028
27032
27033
27037
27039
27043
27054
27057
27061
27065
27073
27077
27078
27104
27106
27110
27117
27142
27169
27226
27266
27271
27648
27788
27830
28869
29099
29364
[ 499 ]
218
9704
11420
11452
11557
11938
12004
12035
12041
12120
12169
12221
12979
13081
13118
13843
14005
14437
15304
15315
15756
15821
15880
15892
16332
16373
16380
16402
16539
16743
16947
16958
17270
17286
17355
17492
17532
17565
18536
18542
18550
18554
18598
18638
18641
18651
21532
21583
21587
21671
21681
22045
22082
26813
26816
26817
26819
26827
26837
26863
26864
26865
26885
26888
26895
26910
26916
26921
26959
26960
26972
26973
26983
27008
27024
27027
27038
27046
27056
27058
27062
27074
27168
27210
27212
27239
27499
27578
27616
27743
27763
27794
27854
27876
27900
28429
28922
29342
29361
29667
[ 500 ]
11460
13053
13236
13310
13317
13324
13351
13835
13836
13850
13916
13947
13970
14020
14031
14040
14096
14139
14182
14189
14280
14438
14454
14748
15297
15463
15507
15511
15515
15516
15612
15781
15895
16085
16215
16391
16394
16397
16405
16429
16595
16738
16754
16759
16771
16930
16940
16943
16959
17044
17238
17331
17337
17411
17425
17454
17500
17516
17517
18158
18543
18634
18635
18748
18769
18800
21213
21217
21218
21219
21499
21517
21552
21883
21974
22102
22113
22120
26807
26814
26838
26849
26871
26879
26901
26905
26918
26953
26954
26980
27053
27394
27461
27479
27485
27489
27506
27511
27516
27625
27669
27672
27777
27812
27820
27828
27846
27898
27958
27964
28772
28780
28805
28858
28910
29745
29999
[ 501 ]
69
10056
12706
12921
13052
13068
13101
13126
13311
13492
13496
13874
13896
13897
13934
13966
13995
14043
14064
14068
14122
14126
14127
14134
14157
14160
14174
14185
14190
14236
14241
14255
14265
14270
14313
14434
14480
14731
15320
15456
15512
15514
15521
15522
15524
15555
15633
15839
16403
16404
16450
16458
16473
16618
16652
16804
16821
16922
16977
17135
17139
17143
17268
17285
17443
17468
17619
17875
17888
18557
18577
18654
18667
18768
18773
18777
18830
18832
21281
21341
21421
21515
21523
21831
21948
21983
22116
22126
22128
22209
22294
26820
26821
26828
26831
26841
26874
26876
26881
26890
26896
26898
26904
26935
26936
27300
27301
27365
27460
27462
27490
27502
27503
27515
27551
27581
27740
27751
27856
27869
27881
27894
27910
27976
28171
28770
28809
29742
[ 502 ]
12855
12856
12919
13017
13031
13104
13244
13326
13327
13411
13490
13509
13833
13856
13877
13973
13994
14109
14184
14192
14260
14269
14271
14562
14571
14575
14576
14664
14879
15166
15288
15496
16547
16565
16583
16611
16643
16683
16687
16695
16787
16860
16898
17042
17520
17578
18629
18727
18740
18749
18765
18766
18791
21208
21252
21340
21361
21419
21707
21772
21921
22007
22132
22135
22136
26829
26899
27298
27362
27368
27496
27583
27754
27801
27911
27931
27936
27962
27967
27974
27991
28101
28175
29753
[ 503 ]
12774
13002
13413
13876
14135
14173
14181
14250
14252
14282
14477
14634
14639
14674
14759
14761
14801
14810
14842
14861
14871
15292
15605
17120
17142
17318
17321
17441
17649
17890
17893
17897
18751
21251
21994
22134
27305
27431
27456
27908
27909
27922
27935
28005
28249
29696
29853
[ 504 ]
13422
13527
13827
14180
14223
14675
14760
14894
15161
15205
17308
17462
17872
17896
18679
27316
27929
27933
27946
28258
29699
[ 505 ]
14566
14567
14631
15048
27304
27315
28199
28202
28262
[ 506 ]
13424
15053
[ 514 ]
2772
[ 516 ]
1800
4632
[ 517 ]
1762
1765
1798
1799
[ 518 ]
1790
1797
1813
1844
2513
2599
2621
2872
[ 519 ]
264
446
618
1606
1607
1717
1724
1795
1818
1867
1879
1910
1923
1942
1944
1966
2049
2592
2611
2686
2757
2758
3275
3290
3361
3443
4140
5468
5469
5470
[ 520 ]
385
387
1409
1421
1441
1451
1615
1776
1792
1837
1898
1908
1968
2142
2216
2217
2490
2585
2589
2619
2701
3078
3254
3263
3280
3364
3535
3564
3930
4143
4628
5417
5493
5591
6040
6052
[ 521 ]
262
383
479
582
605
681
745
1103
1420
1482
1505
1507
1508
1563
1721
1773
1775
1848
1900
1959
1964
1972
2133
2234
2254
2284
2357
2363
2366
2523
2540
2742
2890
3248
3267
3306
3307
3308
3359
3363
3434
3778
3916
4098
4126
4134
4624
5445
5467
5481
5484
5489
5495
5542
6047
8312
8489
[ 522 ]
447
757
911
1156
1179
1405
1434
1457
1458
1464
1484
1486
1524
1545
1568
1609
1854
1874
1953
1958
1967
1996
2146
2267
2561
2729
2751
3235
3380
3435
3512
3597
3663
3818
3893
3911
4125
5411
5479
5482
5491
5513
5980
6038
6039
7884
7987
8236
8242
8299
8491
8795
9097
10638
10688
10756
12331
[ 523 ]
506
583
642
913
1083
1425
1429
1503
1534
1781
2156
2313
2316
2322
2330
2334
2336
2374
2408
2417
2425
2717
2847
3260
3456
3457
3488
3503
3764
3771
3878
3895
3913
3924
4127
4356
4651
4658
5144
5209
5438
5443
5511
5532
5559
5560
5573
5647
5968
6087
6096
7999
8432
9018
11882
28620
[ 524 ]
363
499
507
728
954
1336
1358
1385
1396
1403
1406
1417
1424
1494
1502
1531
1783
1853
2207
2321
2329
2368
2370
2424
2430
2459
2463
2587
2720
3251
3688
3699
3716
3755
3788
3883
3941
3996
4003
4066
4081
4233
4415
4534
4662
4903
5234
5251
5332
5368
5377
5432
5433
5537
5541
5572
5639
5911
5945
5947
6021
6071
6078
6103
6149
6151
6154
6978
7332
7335
7574
7961
8083
8155
8244
8806
9392
10782
10783
11767
12321
29106
29561
[ 525 ]
423
716
748
854
1181
1235
1401
2351
2412
2458
2853
3327
3527
3623
3638
3877
4002
4004
4010
4025
4071
4123
4226
4250
4252
4255
4288
4357
4517
4885
5005
5081
5312
5320
5321
5328
5331
5333
5434
5436
5453
5455
5574
5905
5932
5944
5998
6013
6015
6017
6024
6075
6094
6099
6102
6140
7101
7316
7317
7519
7785
7788
8401
8474
8528
8676
10345
10362
10374
10567
10786
11866
12077
28535
29434
[ 526 ]
39
182
235
247
803
1121
1234
1487
1488
2454
3613
3629
3632
3641
3659
3792
3865
4011
4104
4109
4180
4272
4566
4887
5094
5296
5339
5347
5362
5776
5935
5956
6007
6066
6074
6694
6869
6972
7136
7156
7259
7287
7318
7323
7324
7338
7593
7604
7677
7679
8600
9305
9307
9599
10210
10247
10248
10259
10324
10326
10333
10352
10423
10544
10948
11013
11037
11157
11375
11827
11840
12067
12141
12160
12198
12204
12447
12565
29008
29019
29583
29585
29586
[ 527 ]
162
495
825
1261
1268
1360
2447
3618
3876
4220
4431
4779
4952
5079
5080
5342
5353
5435
5768
5802
5830
5831
5851
5937
5993
6100
6107
6139
6141
6702
6726
7106
7155
7171
7220
7255
7311
7614
7631
8362
8514
9383
9446
9775
9779
9800
10215
10233
10263
10281
10296
10301
10309
10332
10348
10370
10377
10419
10440
10471
10473
10480
10492
10836
10862
10863
11095
11121
11170
11201
11205
11213
11243
11273
11279
11305
11325
11379
11395
11397
11398
11635
11645
11675
11681
11723
11750
11793
11821
11825
11841
11844
11845
11886
11972
11975
12029
12078
12083
12085
12142
12193
12427
12433
12569
27099
27269
27633
28621
29035
29045
29085
29111
29406
29415
29431
29554
29568
29573
29587
[ 528 ]
80
814
1270
3739
4083
4189
4790
4794
4987
5803
5807
5822
5829
5870
5871
5876
5900
6005
6105
6114
6118
6132
6709
6719
7616
8199
8513
8546
9186
9301
9519
9584
9719
9824
9826
9965
9971
10164
10175
10184
10193
10221
10311
10315
10356
10376
10472
10478
10827
10828
10831
10961
11030
11036
11084
11109
11112
11141
11150
11155
11161
11212
11235
11270
11355
11381
11388
11443
11445
11486
11535
11538
11546
11594
11595
11605
11619
11633
11725
11735
11749
11776
11777
11778
11786
11787
11789
11795
11796
11804
11915
11954
11964
11976
12037
12043
12056
12138
12197
12456
12575
16300
26984
26998
27010
27072
27092
27137
27242
27248
27249
27650
28342
28529
28605
29010
29049
29060
29131
29132
29202
29252
29347
29375
29425
29553
29576
29798
[ 529 ]
205
904
1317
3735
3832
4401
4808
4940
5019
5815
5818
5823
5824
5869
5999
6106
6111
6126
6206
6798
9516
9530
9597
9609
9631
9648
9741
9898
9937
9994
9999
10007
10023
10030
10034
10479
10878
10881
11149
11174
11182
11204
11216
11217
11222
11232
11237
11254
11334
11353
11362
11393
11396
11409
11437
11438
11448
11487
11564
11576
11581
11591
11620
11623
11624
11630
11649
11650
11653
11673
11720
11721
11724
11737
11754
11788
11811
11832
11833
11838
11889
11902
11949
11963
11965
11984
12023
12049
12057
12061
12072
12088
12090
12122
12124
12136
12147
12151
12167
12464
12620
13076
13710
15794
15889
16286
16325
18532
18537
18546
18661
21571
21574
21586
21676
22109
26994
27005
27006
27045
27048
27049
27079
27096
27135
27170
27216
27255
27265
27276
27767
27791
28599
28733
28873
28993
29014
29061
29066
29083
29126
29215
29249
29367
29402
[ 530 ]
1290
4399
4408
4785
5797
6119
6121
8591
9185
9587
9683
9730
9918
10009
10083
10092
10873
11203
11236
11295
11338
11341
11404
11408
11414
11418
11453
11519
11547
11553
11589
11602
11606
11613
11616
11631
11632
11837
11905
11907
11952
11979
12011
12012
12032
12052
12054
12073
12091
12092
12118
12173
12207
12454
12479
12982
13230
14013
15338
15586
15796
15871
16134
16149
16188
16194
16206
16260
16272
16746
16941
17189
17269
17424
17450
17493
18531
18609
18627
21313
21452
21568
21675
21702
21781
21926
22034
22095
22104
26884
26894
26964
26981
26988
26992
26997
27004
27013
27044
27050
27055
27081
27107
27108
27122
27127
27144
27148
27149
27153
27166
27174
27182
27191
27193
27243
27251
27573
27602
27768
27790
27797
28118
28120
28123
28355
28498
28520
28601
28820
28825
28853
28857
28870
28899
29062
29251
29371
29474
29475
29545
29928
[ 531 ]
66
1293
1296
1315
4209
5845
9574
9908
10079
11105
11416
11434
11524
11548
11968
11991
11999
12015
12016
12667
13178
13282
13309
13313
13801
14055
14063
14149
14376
14483
14527
15280
15711
15751
15755
15873
15879
15881
15883
15929
16026
16062
16139
16254
16371
16381
16387
16398
16401
16423
16540
16551
16739
16740
16748
16755
16777
16779
16864
16869
16874
16903
16950
17117
17148
17152
17159
17160
17173
17195
17215
17300
17363
17365
17445
18167
18544
18551
18645
18670
18782
18801
21222
21516
21527
21533
21534
21536
21546
21547
21559
21569
21592
21603
21604
21672
21861
21923
22024
22089
22093
26808
26846
26860
26862
26870
26887
26891
26893
26931
26941
26949
26958
27030
27040
27041
27067
27068
27129
27143
27146
27160
27185
27192
27203
27208
27232
27384
27457
27491
27497
27535
27552
27567
27580
27603
27608
27621
27623
27737
27744
27758
27761
27789
27795
27798
27807
27808
27811
27815
27817
27847
27849
27878
27879
27899
27984
28088
28157
28361
28481
28490
28551
28553
28556
28585
28589
28719
28742
28807
28808
28815
28841
28850
28905
29063
29147
29246
29292
29332
29336
29366
29404
29426
29664
29803
29942
[ 532 ]
1285
1286
9832
10042
10069
11520
12573
12981
12985
12987
13050
13089
13098
13137
13208
13228
13279
13319
13361
13389
13790
13792
13831
13832
13845
13875
14011
14015
14028
14033
14035
14137
14167
14342
14432
14455
14475
14478
14482
14502
14518
14926
15229
15232
15306
15321
15322
15329
15339
15340
15386
15421
15443
15458
15465
15477
15503
15593
15689
15808
15841
15874
15876
15886
15887
15970
16014
16114
16115
16375
16396
16419
16422
16465
16467
16468
16470
16538
16693
16745
16840
16851
16877
16916
16923
16945
16946
17101
17104
17130
17154
17232
17237
17260
17263
17289
17306
17466
17507
17518
17527
17534
17549
17551
17552
17561
17576
17651
18578
18584
18621
18628
18630
18647
18648
18658
18671
18710
18725
21211
21220
21225
21234
21359
21365
21407
21459
21542
21580
21591
21758
21803
21838
21984
22037
22103
22106
22112
22118
26839
26842
26855
26858
26868
26902
26934
26950
26955
26967
27155
27165
27190
27295
27376
27484
27519
27538
27545
27575
27587
27750
27760
27804
27829
27843
27865
27874
27875
27877
27954
27998
28002
28091
28156
28289
28470
28489
28502
28806
28843
28912
28927
28944
29295
29389
29456
[ 533 ]
1282
1287
10058
12583
12904
12920
12959
12975
13046
13047
13234
13257
13303
13312
13388
13408
13531
13725
13764
13839
13840
13841
13849
13892
14007
14155
14188
14238
14345
14373
14375
14385
14459
14461
14513
14538
14673
14695
14885
14950
15089
15143
15251
15257
15296
15332
15333
15369
15377
15378
15419
15422
15454
15466
15492
15494
15518
15519
15523
15533
15566
15583
15619
15629
15686
15745
15840
15845
16084
16406
16409
16415
16424
16425
16472
16513
16517
16557
16558
16559
16615
16658
16664
16671
16673
16677
16716
16752
16756
16776
16831
16842
16846
16849
16856
16882
16891
16892
16900
16917
16926
16929
16937
17043
17054
17071
17090
17107
17221
17248
17288
17329
17330
17334
17335
17367
17406
17417
17427
17442
17457
17477
17506
17512
17540
17575
17577
17589
17594
17596
17601
17652
17653
17870
17887
18563
18570
18575
18576
18581
18649
18689
18705
18745
21226
21246
21342
21344
21358
21678
21700
21909
21985
22039
22040
22066
22140
26834
26843
26857
26872
26908
26917
26956
26957
27296
27387
27388
27423
27439
27514
27542
27543
27586
27589
27719
27727
27805
27857
27866
27884
27959
27960
27965
27975
27994
28007
28010
28034
28037
28064
28069
28090
28326
28513
28766
28771
28812
28859
28938
29392
29868
[ 534 ]
12955
12961
13065
13263
13294
13301
13302
13305
13403
13409
13412
13453
13493
13505
13825
13828
13859
13935
13975
14120
14183
14319
14404
14476
14552
14579
14581
14687
14688
14721
14726
14730
14738
14746
14793
14923
15006
15085
15199
15225
15389
15497
15599
15623
15648
15655
15673
15746
16519
16560
16586
16657
16661
16674
16761
16808
16848
16859
16924
16967
17015
17070
17098
17115
17137
17138
17140
17141
17332
17342
17383
17461
17498
17542
17606
17871
18693
18723
18738
18752
21228
21254
21354
21416
21728
21785
21840
21888
22006
22029
26856
27189
27292
27334
27358
27367
27371
27421
27438
27465
27498
27509
27527
27726
27752
27770
27836
27858
27907
27915
27927
27944
27952
27961
27963
27973
27989
28003
28040
28042
28084
28105
28207
28212
28245
29859
[ 535 ]
12797
13015
13069
13463
13464
13465
13487
13489
13530
13618
14088
14138
14176
14289
14315
14389
14398
14399
14568
14569
14570
14572
14584
14602
14625
14679
14683
14724
14727
14750
14755
14772
14783
14809
14856
14859
14893
14895
14903
14973
15029
15041
15060
15258
15446
15685
16516
16567
16569
16574
16603
16614
16633
16645
16651
16680
16711
16782
16835
16908
17088
17119
17484
17593
18694
18728
18750
21388
21428
22119
22131
22133
27311
27405
27422
27445
27450
27469
27871
27872
27904
27912
27917
27920
27923
27924
27930
27932
27992
28072
28174
28769
29385
29519
29704
29901
[ 536 ]
12771
12827
13528
13655
13990
14402
14563
14583
14714
14715
14804
14812
14827
14899
14918
15090
15179
15195
15223
15526
15529
16894
21992
27417
27454
27939
27990
28190
28242
28263
29867
[ 537 ]
13665
14590
14806
14813
14960
15203
16650
17037
17895
27317
28197
28201
28250
28253
28265
[ 538 ]
14831
14833
28257
28268
[ 539 ]
13425
[ 547 ]
2771
[ 548 ]
2501
2663
4343
[ 549 ]
535
1788
2219
2624
2631
2670
2690
3121
3207
[ 550 ]
984
1675
1772
1796
1823
2489
2551
2580
2623
2630
2672
2762
2839
2864
2874
3120
3122
3279
4643
7918
8308
[ 551 ]
563
1170
1452
1456
1612
1822
1825
1903
2291
2360
2492
2507
2553
2554
2555
2557
2575
2581
2584
2610
2615
2617
2648
2650
2664
2666
2730
2824
2863
2866
2870
2873
3118
3127
3196
3197
3277
3347
3561
3572
3974
4142
4345
4347
4620
5466
5494
7920
8314
[ 552 ]
2
388
636
672
993
1177
1440
1453
1454
1794
1961
2173
2214
2257
2522
2536
2583
2654
2698
2700
2869
2875
2877
2892
3164
3284
3298
3310
3314
3358
3360
3366
3384
3405
3428
3432
3433
3481
3485
3534
3539
3542
3552
3553
3569
3574
3932
3936
3949
4129
4144
4650
5465
5471
5522
5525
7992
8311
9101
[ 553 ]
5
258
266
351
390
484
513
556
998
1035
1046
1395
1447
1462
1516
1526
1931
1952
1960
1965
2005
2041
2165
2247
2327
2376
2384
2484
2508
2524
2543
2560
2618
2693
2727
2739
2746
2755
2888
2914
3193
3256
3287
3356
3436
3451
3458
3459
3515
3521
3543
3578
3582
3599
3671
3774
3810
3817
3848
3912
3914
3917
3928
3929
3935
3975
4090
4130
4131
4132
4237
4461
4625
4831
5416
5496
5509
5588
6041
6042
6225
6226
7359
7802
7888
7889
7926
8233
8269
8302
8334
8336
8338
8342
8787
10734
[ 554 ]
8
10
11
13
294
297
504
577
898
914
923
972
1201
1245
1345
1546
1595
1779
1902
1955
2170
2212
2233
2237
2239
2260
2271
2319
2335
2365
2377
2475
2480
2481
2485
2509
2572
2710
2726
2738
2754
2841
2860
3212
3266
3282
3296
3370
3371
3417
3422
3498
3510
3532
3537
3580
3601
3761
3763
3772
3773
3776
3814
3850
3896
3898
3927
3981
3991
3993
4049
4062
4079
4097
4136
4146
4150
4240
4594
4612
4616
5414
5422
5424
5440
5461
5473
5510
5519
5529
5543
5625
5988
6048
6224
6230
7899
8133
8295
8326
8332
8397
8420
8488
8504
8844
8942
9010
10640
10668
10676
10738
10740
10746
10767
10770
[ 555 ]
9
34
256
281
427
555
558
572
574
603
608
611
623
643
738
802
1004
1197
1407
1412
1426
1498
1567
2208
2285
2303
2340
2345
2418
2421
2544
2571
2709
3023
3073
3262
3369
3381
3505
3590
3666
3675
3698
3706
3760
3785
3902
3963
3990
3992
3994
4006
4038
4053
4102
4239
4241
4258
4452
4548
4617
4659
4834
5183
5203
5211
5215
5239
5301
5315
5421
5425
5430
5448
5449
5462
5480
5498
5562
5568
5633
5646
5733
5918
5949
5971
6027
6054
6065
6090
6143
6220
7049
7051
7336
7636
7781
7863
7882
7887
7903
7932
8020
8046
8065
8075
8077
8080
8088
8132
8142
8159
8296
8359
8446
8454
8479
8481
8495
9126
9373
9375
10656
10657
10725
10744
10758
10778
10779
10790
[ 556 ]
16
292
305
473
606
653
806
922
1124
1207
1242
1256
1362
1392
1495
1532
2149
2157
2286
2298
2305
2311
2338
2352
2371
2409
2410
2427
2443
2464
2795
3328
3372
3409
3419
3490
3493
3494
3589
3591
3603
3604
3605
3635
3644
3654
3668
3677
3678
3681
3741
3753
3796
3800
3802
3836
3988
4008
4028
4037
4050
4054
4058
4068
4073
4077
4096
4103
4251
4257
4283
4511
4654
4660
5026
5028
5122
5124
5174
5177
5199
5201
5205
5208
5210
5213
5235
5249
5273
5298
5316
5386
5427
5512
5514
5538
5540
5548
5553
5635
5645
5927
5931
5989
5991
5994
6031
6033
6035
6064
6082
6144
6145
7091
7098
7364
7491
7492
7586
7780
7792
7832
7844
7845
7861
7871
7995
8022
8029
8196
8226
8243
8280
8392
8460
8483
8516
8517
8604
8777
8863
8930
8982
9026
9043
9064
9094
9148
9295
9390
9396
10400
10599
10616
10633
10635
10677
10680
10681
10696
10781
10818
10929
10930
28630
29563
[ 557 ]
37
282
284
327
345
462
502
522
652
866
926
1141
1142
1355
1361
1471
1476
1493
1499
2154
2297
2299
2300
2354
2444
2453
2455
2461
2573
2706
2851
2859
3382
3617
3656
3657
3682
3710
3749
3751
3752
3845
3864
3873
3879
3889
3958
3983
4012
4018
4027
4116
4118
4170
4224
4284
4287
4308
4379
4474
4902
5022
5023
5084
5085
5155
5268
5302
5303
5338
5352
5376
5382
5389
5407
5642
5792
5962
5963
6025
6056
6070
6072
6073
6085
6095
6101
6265
6710
6860
7079
7112
7119
7169
7201
7215
7253
7268
7304
7322
7329
7330
7562
7580
7612
7648
7971
8023
8033
8062
8111
8167
8168
8192
8193
8219
8263
8264
8595
8613
8708
8903
8925
9032
9051
9063
9089
9130
9136
9334
9335
9379
9393
9405
9408
9425
9460
9467
9761
9763
10244
10344
10359
10361
10401
10424
10427
10434
10462
10487
10503
10504
10513
10523
10535
10597
10603
10613
10646
10679
10785
10787
10804
11061
11288
11870
11879
12079
12111
12161
12201
12451
28626
28649
28662
29021
29026
29040
29167
29187
29438
29582
[ 558 ]
242
244
285
337
424
655
1145
1374
1381
1472
1490
1500
2456
3608
3633
3660
3683
3684
3685
3799
3874
3884
3888
3984
3995
3999
4000
4015
4017
4034
4074
4267
4270
4279
4289
4296
4380
4410
4444
4491
4792
4867
4899
4927
4990
5078
5270
5293
5308
5337
5346
5369
5381
5640
5641
5728
5755
5757
5777
5790
5791
5827
5863
5914
5922
5948
5961
6019
6061
6068
6089
6130
6131
6155
6161
6544
6616
6973
7103
7154
7188
7211
7224
7258
7263
7264
7320
7342
7343
7357
7369
7493
7573
7599
7606
7609
7615
7618
7625
7685
7849
8035
8104
8106
8147
8150
8382
8385
8512
8525
8574
8614
8634
8689
9024
9135
9182
9199
9296
9331
9333
9359
9360
9422
9431
9524
9767
9905
9932
10217
10224
10231
10239
10246
10262
10265
10304
10306
10310
10350
10363
10420
10431
10433
10447
10495
10516
10518
10521
10537
10606
10627
10632
10796
10800
10810
10821
10824
10907
10963
11066
11096
11156
11251
11304
11326
11335
11368
11695
11884
11930
12030
12096
12110
12164
12199
12443
28531
28538
28624
28678
28995
29012
29048
29204
29369
29407
29435
29437
29445
29503
29584
29601
[ 559 ]
194
195
202
227
494
905
1184
1221
1233
1373
3028
3607
3824
3825
3868
4030
4067
4165
4167
4172
4191
4199
4295
4403
4439
4445
4476
4683
4793
4911
4937
5135
5269
5307
5351
5354
5379
5758
5782
5852
5886
5904
5906
5936
6001
6685
6850
6851
6895
7046
7109
7120
7147
7198
7210
7245
7261
7282
7298
7300
7326
7339
7395
7426
7428
7537
7549
7565
7566
7596
7608
7629
7662
7721
8350
8354
8406
8409
8534
8552
8860
9265
9386
9388
9389
9412
9415
9421
9437
9483
9489
9504
9526
9561
9613
9629
9656
9735
9773
9940
9943
9963
9968
10003
10182
10202
10241
10249
10269
10270
10316
10327
10331
10340
10493
10536
10549
10550
10557
10579
10588
10788
10834
10838
10844
10866
10883
10888
10893
10971
10994
11020
11060
11068
11069
11086
11089
11091
11093
11094
11099
11108
11173
11199
11206
11210
11230
11302
11311
11478
11566
11571
11596
11634
11656
11700
11718
11761
11772
11773
11779
11800
11807
11824
11826
11839
11846
11847
11857
11911
12025
12058
12086
12102
12108
12114
12143
12152
12179
12188
12196
12200
12435
12561
16258
16291
27009
28348
28594
28726
28997
29005
29013
29084
29087
29088
29113
29191
29206
29416
29504
29544
29579
29598
[ 560 ]
118
174
809
810
1369
3611
4084
4195
4198
4206
4405
4406
4496
4679
4741
4744
5070
5287
5344
5349
5355
5764
5771
5795
5804
5805
5819
5821
5825
5832
5833
5836
5840
5842
5850
5939
6115
6124
6125
6202
6203
6570
6714
6727
6905
7273
7280
7319
7348
7350
7400
7401
7430
7508
7673
7787
8386
8533
8535
8575
9197
9264
9300
9517
9518
9528
9532
9535
9565
9606
9637
9699
9726
9732
9734
9746
9798
9836
9921
9922
9956
9980
9984
9997
10022
10037
10038
10039
10134
10156
10199
10223
10235
10237
10277
10278
10284
10312
10322
10339
10349
10368
10381
10846
10872
10896
10945
11031
11042
11067
11072
11083
11090
11111
11114
11117
11147
11163
11167
11169
11181
11185
11202
11209
11211
11214
11255
11277
11281
11297
11298
11308
11324
11327
11329
11332
11336
11349
11359
11365
11378
11390
11444
11466
11488
11574
11597
11622
11626
11637
11639
11652
11676
11719
11747
11762
11780
11790
11802
11806
11817
11828
11829
11835
11859
11909
11918
11921
11932
11956
11966
11974
11978
12027
12036
12062
12094
12099
12107
12140
12150
12416
12474
13708
16200
16204
16326
16328
26995
27093
27101
27131
27176
27213
27246
27268
27281
27792
28343
28345
28349
28416
28421
28422
28519
28533
28604
28721
28753
28754
28787
28797
28833
28887
28896
28961
29050
29093
29124
29173
29214
29227
29242
29306
29422
29451
29459
29477
29571
29588
29778
[ 561 ]
165
173
207
1269
1271
3625
4696
4734
4876
4913
5015
5103
5770
5811
5820
5835
5837
5860
5872
5899
5955
6120
6166
6174
6180
6193
6204
6644
6731
6804
6805
6893
6922
7296
8207
8578
8589
8874
9191
9194
9579
9583
9596
9627
9654
9657
9660
9667
9740
9757
9790
9810
9811
9879
9882
9902
9923
9926
9975
9977
9981
10011
10025
10026
10032
10033
10035
10036
10158
10167
10177
10183
10189
10372
10894
10981
10989
10991
11028
11046
11092
11119
11135
11165
11176
11180
11187
11191
11195
11208
11218
11219
11231
11240
11257
11276
11280
11339
11403
11406
11435
11447
11484
11506
11534
11549
11550
11555
11556
11573
11582
11586
11593
11625
11647
11663
11667
11669
11684
11698
11706
11707
11715
11717
11730
11734
11814
11831
11903
11986
12022
12034
12046
12047
12051
12055
12074
12115
12127
12168
12170
13182
14147
15798
15942
16182
16190
16191
16197
16210
16217
16237
16261
16278
16290
16299
16312
16327
16384
16952
17186
17546
17557
18626
21614
26970
27014
27031
27086
27097
27100
27132
27136
27145
27211
27222
27225
27244
27253
27260
27275
27278
27282
27283
27285
27793
28128
28310
28313
28325
28381
28423
28504
28518
28574
28597
28600
28606
28728
28760
28802
28814
28823
28900
28903
29009
29015
29016
29068
29130
29148
29151
29156
29207
29226
29229
29265
29276
29346
29410
29413
29423
29453
29458
29461
29491
29555
29797
[ 562 ]
210
211
213
1262
1306
3734
3736
3828
4784
4787
5285
5808
5838
5857
6182
6185
6186
6629
6806
6910
6921
8540
9694
9700
9727
9742
9747
9754
9808
9854
9897
9992
10027
10043
10044
10048
10170
10188
10197
10314
10874
10969
11098
11100
11110
11126
11361
11405
11413
11428
11430
11472
11474
11512
11516
11561
11583
11601
11617
11668
11893
11894
11895
11904
11941
11971
11982
11983
11996
12002
12010
12021
12042
12050
12123
12171
12182
12572
13079
13109
13160
13161
13163
13171
13686
13715
13820
13822
14000
14150
14484
15510
15590
15782
15817
15833
15872
15877
15944
15948
16124
16171
16199
16213
16216
16229
16275
16388
16393
17149
17155
17179
17302
17494
17564
17632
18547
18591
18601
18606
18631
18662
21486
21494
21539
21544
21558
21612
21642
21644
21693
21716
21860
22023
26974
26991
27003
27017
27022
27066
27083
27111
27114
27119
27120
27130
27172
27173
27178
27180
27247
27252
27264
27482
27554
27556
27559
27566
27685
27748
27821
28126
28132
28147
28159
28166
28366
28390
28409
28411
28426
28473
28486
28492
28501
28532
28550
28561
28686
28717
28720
28736
28743
28756
28775
28817
28902
28964
28972
29082
29117
29142
29143
29146
29245
29263
29334
29335
29337
29362
29365
29479
29515
29526
29556
29638
29767
29800
29997
[ 563 ]
61
206
1284
4217
4942
5765
5844
5846
6779
6797
6931
8539
8544
8586
9576
9684
9685
9691
9696
9729
9791
10045
10050
10060
10062
10072
10087
10096
11417
11419
11427
11432
11442
11459
11461
11483
11518
11533
11545
11560
11615
11897
11937
11988
12000
12003
12018
12019
12174
12210
12213
12470
12571
12579
12584
12858
12909
12980
13024
13025
13087
13095
13097
13150
13180
13184
13211
13227
13235
13253
13278
13283
13285
13316
13365
13370
13494
13675
13781
13823
13851
14012
14014
14062
14322
14328
14431
14486
14494
14504
14517
14526
14533
14534
15107
15300
15301
15302
15307
15324
15325
15414
15517
15550
15592
15594
15715
15720
15778
15843
15870
15882
15906
15908
15916
15928
15934
15935
15979
16064
16080
16081
16117
16170
16211
16427
16431
16537
16580
16582
16620
16705
16747
16833
16839
16857
16931
16942
16970
16973
17153
17158
17187
17230
17284
17297
17305
17336
17348
17352
17356
17364
17366
17391
17535
17536
17545
17547
17548
17563
17567
17568
17631
17633
17639
18559
18588
18592
18646
18653
18784
21270
21364
21435
21436
21465
21469
21475
21480
21507
21553
21556
21582
21602
21663
21741
21770
21780
21918
21938
21942
21946
22035
22044
22046
22078
22086
22098
22101
22117
22121
26824
26852
26929
26951
26963
27002
27064
27109
27123
27150
27152
27154
27171
27183
27197
27199
27228
27250
27258
27486
27487
27522
27533
27555
27604
27723
27746
27776
27780
27796
27813
27814
27816
27824
27832
27848
27861
28116
28136
28154
28155
28338
28341
28353
28364
28431
28478
28485
28544
28586
28782
28793
28800
28831
28856
28901
28977
29073
29210
29247
29326
29345
29359
29394
29536
29538
29610
29795
29796
29799
29837
29922
29943
[ 564 ]
62
64
1297
1299
4722
6799
10061
10064
11522
11532
11989
11993
11998
12005
12053
12661
12666
12687
12882
12898
12923
12977
12978
13021
13029
13082
13083
13091
13113
13116
13121
13136
13154
13155
13165
13209
13216
13256
13284
13293
13295
13296
13300
13335
13346
13360
13381
13387
13390
13456
13512
13731
13734
13824
13837
13844
13846
13852
13872
13880
13882
13889
13956
13999
14004
14032
14103
14152
14153
14311
14346
14369
14370
14436
14440
14448
14457
14479
14481
14488
14521
14537
14667
14892
14983
15109
15111
15309
15364
15375
15439
15450
15534
15562
15595
15610
15611
15614
15625
15649
15688
15704
15706
15719
15729
15788
15811
15826
15831
15861
15868
15930
15963
16002
16035
16054
16096
16098
16107
16144
16214
16230
16232
16413
16440
16460
16461
16520
16546
16549
16594
16647
16662
16682
16696
16712
16749
16760
16780
16785
16829
16832
16834
16854
16865
16897
16910
16911
16925
16938
16955
16960
16961
16991
17005
17092
17110
17116
17118
17167
17172
17176
17192
17210
17214
17229
17234
17236
17242
17244
17245
17246
17261
17264
17287
17296
17333
17359
17397
17403
17409
17423
17426
17438
17460
17486
17488
17496
17531
17537
17543
17554
17571
17630
17634
17635
18580
18617
18623
18650
18762
18767
21209
21232
21233
21235
21237
21279
21302
21339
21444
21447
21460
21467
21519
21524
21526
21528
21537
21540
21549
21564
21633
21662
21706
21737
21754
21789
21790
21849
21893
21894
21903
22028
22038
22043
22049
22059
22062
26878
26909
26948
26965
27052
27128
27159
27196
27206
27340
27379
27459
27476
27518
27521
27536
27591
27592
27594
27595
27698
27714
27716
27722
27735
27757
27774
27786
27800
27809
27819
27825
27839
27845
27853
27863
27880
27889
27892
27906
27955
27982
27983
27985
28111
28112
28133
28170
28327
28356
28363
28368
28371
28392
28472
28476
28477
28510
28525
28581
28750
28813
28913
28929
29095
29256
29378
29490
29509
29671
29678
29802
29817
29917
29940
29941
29946
29996
[ 565 ]
1298
8583
10054
10059
11531
12578
12715
12844
12857
12924
12944
12967
12986
13001
13023
13027
13028
13030
13035
13036
13043
13094
13102
13111
13120
13122
13124
13144
13166
13179
13214
13215
13240
13270
13297
13306
13315
13323
13347
13359
13363
13386
13407
13450
13473
13478
13501
13503
13557
13798
13834
13847
13854
13857
13864
13868
13978
13991
14008
14124
14343
14360
14386
14393
14422
14425
14453
14460
14474
14519
14525
14528
14556
14598
14654
14742
14908
14972
14996
15112
15116
15159
15200
15250
15271
15290
15291
15314
15343
15367
15371
15380
15390
15393
15420
15430
15431
15436
15452
15474
15480
15485
15520
15560
15573
15598
15613
15620
15622
15632
15643
15664
15674
15677
15679
15697
15700
15727
15738
15747
15962
16012
16434
16435
16448
16466
16469
16523
16562
16598
16602
16621
16626
16635
16641
16670
16672
16684
16707
16709
16713
16734
16763
16764
16773
16783
16803
16806
16813
16822
16844
16850
16868
16914
16928
16966
16984
17001
17028
17030
17051
17055
17075
17102
17108
17109
17129
17133
17162
17184
17253
17256
17279
17283
17360
17368
17431
17434
17447
17448
17464
17467
17480
17510
17526
17533
17566
17579
17582
17602
17621
17643
18574
18589
18614
18660
18711
18712
18730
18732
18743
18764
21215
21227
21231
21239
21264
21311
21316
21317
21379
21417
21420
21424
21429
21466
21471
21509
21520
21531
21699
21710
21882
21890
21904
21913
21914
21939
21952
22009
22010
22031
22051
22052
22063
22115
26840
26866
26875
27290
27297
27326
27359
27361
27363
27366
27382
27383
27391
27392
27437
27441
27442
27443
27492
27493
27528
27532
27540
27576
27599
27705
27706
27715
27753
27835
27870
27893
27903
27941
27953
27957
27972
27988
27999
28011
28020
28029
28030
28065
28140
28167
28305
28370
28466
28506
28579
28852
28909
29076
29287
29379
29380
29677
29721
29734
29738
29756
29758
29759
29769
29791
29792
29813
29814
29862
29913
30000
[ 566 ]
12951
12953
12957
12994
13026
13055
13127
13135
13261
13265
13269
13299
13446
13474
13488
13495
13529
13570
13643
13756
13812
13829
13830
13853
13879
13881
13886
13887
13993
14006
14128
14312
14318
14391
14462
14508
14523
14529
14555
14560
14561
14588
14594
14595
14604
14678
14682
14685
14697
14735
14737
14751
14756
14773
14811
14867
14884
14896
14897
14901
14958
15063
15075
15086
15087
15118
15140
15176
15218
15254
15264
15372
15387
15394
15471
15479
15481
15491
15504
15539
15546
15561
15570
15577
15597
15615
15640
15667
15684
15690
16008
16030
16443
16462
16500
16503
16529
16534
16555
16556
16561
16566
16587
16607
16665
16666
16688
16710
16784
16805
16845
16893
16896
16965
16978
16983
17014
17024
17076
17089
17136
17309
17338
17345
17372
17422
17428
17469
17471
17499
17505
17509
17519
17528
17529
17581
17583
17587
17600
17628
17636
17876
18618
18678
18682
18683
18685
18699
18713
18756
18758
18760
21230
21249
21265
21286
21289
21330
21338
21352
21446
21761
21871
21898
21911
21975
21980
21987
21997
22030
22064
22137
22139
27299
27336
27347
27351
27372
27389
27393
27399
27411
27418
27419
27434
27451
27452
27529
27700
27720
27851
27951
27986
27993
28019
28067
28106
28284
28914
28940
29079
29629
29719
29741
29760
29839
29879
29902
29974
[ 567 ]
10057
12740
12751
12752
12820
12838
12854
12862
12958
12993
13056
13064
13247
13402
13447
13485
13539
13648
13653
13654
13656
13826
13860
14251
14316
14400
14546
14550
14607
14610
14613
14614
14621
14632
14635
14670
14689
14702
14739
14758
14762
14780
14787
14788
14815
14818
14829
14841
14854
14858
14870
14880
14914
14948
14959
15001
15177
15206
15209
15253
15256
15335
15395
15425
15498
15536
15537
15563
15637
15668
15734
15737
16637
16639
16642
16649
16982
17008
17010
17081
17320
17432
17490
17525
17616
17617
18741
18753
18759
21355
21356
21387
21881
21996
22000
22001
27302
27313
27319
27320
27356
27369
27414
27420
27426
27427
27428
27446
27495
27928
27970
28079
28080
28181
28217
28508
28937
28941
29077
29078
29387
29395
29695
29737
29843
[ 568 ]
12763
12769
12775
12829
13426
13440
13518
13540
13541
13556
13565
13660
13982
13992
14406
14541
14589
14612
14633
14692
14764
14791
14792
14798
14808
14824
14828
14852
14875
14962
14989
14991
15004
15042
15054
15055
15181
15186
15194
15621
15636
16475
16617
17079
21288
21821
27309
27415
27424
27429
27448
27464
28071
28176
28192
28209
28224
28226
28246
28269
28271
[ 569 ]
12723
13419
13423
13536
13538
14681
14763
14770
14820
14830
15046
15052
15091
15162
15180
15190
16631
27310
28195
28208
28254
29845
[ 570 ]
13416
13420
13616
14403
15187
[ 571 ]
28198
[ 577 ]
2777
[ 579 ]
1804
2782
3182
4342
[ 580 ]
1829
2626
2634
[ 581 ]
1
985
1767
1768
2593
2668
3559
4631
4637
[ 582 ]
532
1769
2594
2603
2628
2637
2639
2646
2662
2671
2687
2784
2786
2867
2879
3129
3178
3291
3346
3425
3557
4350
7917
[ 583 ]
488
671
1787
1820
1880
1943
2203
2264
2491
2506
2556
2567
2596
2608
2609
2614
2645
2656
2658
2732
2735
2878
2899
3115
3166
3354
3536
3567
3570
3571
3576
3816
3973
4141
4629
4644
7804
7929
8304
8307
8320
8323
9103
10707
10712
[ 584 ]
381
382
386
487
528
561
616
619
679
962
963
994
1154
1175
1771
1774
1847
2197
2205
2220
2222
2255
2387
2482
2516
2518
2546
2605
2649
2697
2750
2787
2821
2825
2871
2881
2883
2893
2896
2912
3095
3128
3194
3210
3274
3276
3283
3289
3344
3349
3352
3357
3426
3431
3448
3540
3541
3560
3577
3920
3931
3952
4133
4139
4149
4157
4315
4351
4352
4584
4645
5485
5590
5618
5619
7803
7924
7940
8118
8319
8321
8498
[ 585 ]
12
253
278
311
314
450
474
560
594
615
635
637
639
647
658
664
975
995
999
1148
1165
1166
1344
1513
1618
1664
2172
2230
2232
2235
2268
2323
2375
2405
2520
2526
2527
2535
2539
2681
2702
2728
2740
2756
2808
2895
2902
3081
3243
3253
3257
3269
3271
3273
3312
3316
3336
3340
3341
3342
3362
3385
3404
3429
3437
3472
3473
3476
3482
3522
3538
3549
3551
3579
3583
3598
3745
3754
3777
3803
3804
3805
3809
3859
3915
3921
3945
3946
3948
3972
3976
4091
4100
4135
4138
4153
4238
4243
4316
4318
4355
4596
4614
4622
4649
4671
4835
4836
5415
5420
5472
5516
5528
5555
5558
5565
5598
5617
6045
6046
7890
7891
7897
7900
7907
7925
7934
7993
8011
8043
8044
8130
8270
8286
8310
8327
9102
10652
10717
10739
[ 586 ]
7
156
255
257
263
268
270
306
342
359
361
410
419
453
480
483
524
541
557
631
651
680
714
743
958
974
1006
1158
1159
1161
1404
1411
1415
1511
1945
1956
2163
2210
2236
2270
2276
2295
2325
2344
2356
2393
2396
2397
2415
2465
2474
2548
2570
2588
2607
2704
2711
2714
2749
2794
2804
2805
2843
2844
2885
3213
3236
3250
3265
3281
3339
3383
3387
3388
3421
3447
3453
3477
3486
3513
3518
3519
3544
3546
3550
3581
3594
3595
3669
3670
3708
3719
3762
3780
3857
3891
3900
3905
3910
3918
3939
3942
3944
3947
4114
4128
4147
4159
4160
4455
4599
4606
4615
4656
4841
5167
5198
5202
5406
5447
5459
5474
5483
5490
5500
5501
5518
5521
5544
5600
5666
5926
5929
5966
5990
6049
6222
7086
7191
7800
7810
7818
7827
7879
7986
7994
8047
8158
8185
8237
8238
8301
8316
8317
8318
8337
8416
8427
8443
8475
8487
8490
8500
8519
8520
8675
8782
8809
9100
9174
9400
9450
10665
10686
10737
10742
10752
10754
[ 587 ]
25
237
273
276
283
307
310
332
425
476
509
510
520
523
527
550
609
622
624
628
646
719
720
729
731
752
753
768
847
924
947
956
957
1007
1157
1192
1198
1205
1266
1333
1350
1365
1380
1393
1399
1414
1529
2152
2211
2261
2269
2272
2280
2302
2315
2317
2349
2358
2378
2389
2394
2403
2440
2471
2473
2478
2559
2715
2807
3036
3055
3247
3318
3332
3338
3374
3376
3398
3401
3455
3489
3491
3501
3506
3524
3596
3702
3703
3744
3766
3767
3769
3781
3786
3787
3801
3812
3821
3853
3854
3903
3919
3926
3955
3956
3957
3962
3982
3986
4051
4063
4093
4099
4117
4124
4234
4246
4263
4312
4412
4414
4435
4449
4512
4581
4825
4830
4842
4844
4905
4962
5191
5192
5193
5231
5274
5278
5366
5378
5410
5454
5456
5476
5499
5502
5545
5557
5567
5569
5577
5626
5636
5669
5734
5919
5969
5981
5984
5986
6010
6034
6050
6153
6736
6983
6995
7053
7057
7058
7089
7249
7327
7698
7702
7796
7819
7873
7875
7885
7905
7906
7933
7970
7998
8002
8006
8007
8016
8021
8027
8038
8116
8128
8135
8171
8173
8178
8241
8251
8300
8433
8438
8451
8476
8480
8482
8506
8522
8602
8703
8792
8797
8798
8817
8937
8957
8973
8987
8997
9016
9065
9114
9155
9233
9371
9391
9462
10695
10723
10729
10736
10741
10776
10777
10913
27639
[ 588 ]
27
35
36
158
160
248
289
293
335
341
422
492
501
553
602
610
693
739
740
749
750
751
829
831
851
860
917
919
966
1147
1248
1335
1341
1343
1351
1352
1378
1379
1391
2144
2182
2308
2310
2350
2353
2355
2381
2382
2407
2468
2531
2741
2858
3018
3066
3319
3323
3325
3326
3329
3373
3400
3413
3414
3418
3420
3492
3529
3616
3619
3634
3640
3648
3674
3679
3680
3709
3715
3765
3779
3783
3784
3790
3795
3843
3856
3863
3881
3943
3965
3977
4007
4059
4092
4108
4227
4247
4254
4256
4260
4268
4280
4282
4292
4307
4372
4434
4447
4448
4513
4531
4557
4666
4847
4855
4906
4907
4908
5009
5097
5123
5160
5195
5219
5275
5318
5405
5408
5409
5441
5530
5550
5551
5554
5561
5580
5627
5632
5738
5743
5925
5970
5977
5978
6020
6022
6062
6077
6079
6081
6086
6097
6098
6109
6156
6157
6458
6605
6735
6737
6984
7034
7050
7113
7151
7160
7205
7333
7334
7358
7372
7411
7497
7577
7590
7611
7640
7641
7703
7783
7791
7797
7828
7833
7838
7869
7960
7973
8000
8003
8030
8059
8064
8072
8073
8082
8086
8094
8105
8228
8245
8255
8288
8297
8377
8379
8404
8430
8431
8450
8457
8494
8605
8643
8655
8785
8848
8906
8922
8935
8949
8950
9004
9015
9019
9025
9076
9080
9081
9082
9095
9145
9150
9152
9158
9217
9377
9398
9404
9470
9480
10286
10385
10391
10457
10484
10507
10512
10543
10628
10634
10654
10682
10697
10771
10791
10793
10795
10820
11064
11928
28616
28622
28659
29103
29441
[ 589 ]
131
159
288
302
323
333
344
493
554
654
721
722
723
827
828
908
910
925
937
944
1140
1183
1203
1238
1354
1375
1376
2301
2429
2431
2439
2457
2462
2850
2852
2854
2855
3230
3320
3525
3526
3622
3630
3650
3689
3690
3691
3693
3714
3726
3757
3798
3822
3852
3886
4013
4014
4016
4019
4021
4026
4046
4047
4055
4064
4085
4087
4105
4107
4110
4122
4182
4188
4192
4222
4232
4277
4281
4309
4359
4364
4367
4376
4427
4437
4518
4520
4529
4532
4539
4815
4860
4873
4888
4909
4965
4969
4974
4976
5113
5157
5218
5283
5322
5334
5335
5336
5396
5450
5451
5503
5638
5643
5754
5760
5761
5778
5779
5923
5933
5934
5957
6000
6008
6011
6018
6026
6057
6069
6091
6093
6104
6110
6142
6147
6353
6724
6755
6760
6830
6841
6855
6936
6963
7045
7047
7071
7081
7104
7117
7146
7161
7168
7199
7214
7256
7257
7267
7269
7308
7314
7321
7365
7496
7498
7560
7634
7635
7644
7646
7649
7651
7705
7782
7786
7858
7956
7972
7997
8026
8055
8056
8057
8097
8140
8141
8164
8188
8396
8405
8411
8424
8452
8459
8466
8484
8515
8518
8608
8650
8677
8682
8705
8851
8856
8864
8904
8905
8926
8929
8932
8966
8970
9002
9023
9030
9037
9042
9085
9205
9206
9247
9317
9345
9347
9366
9367
9372
9378
9381
9406
9416
9472
9477
9505
10220
10245
10357
10386
10390
10394
10398
10425
10436
10485
10496
10500
10501
10502
10506
10562
10566
10601
10604
10610
10614
10618
10619
10622
10629
10631
10683
10774
10789
10811
10819
10916
10923
11289
11875
12068
28623
28646
28666
28681
29023
29043
29052
29188
29199
29502
29559
29560
29564
29581
[ 590 ]
40
126
177
243
322
338
715
733
807
935
939
1137
1185
1236
1326
1398
2307
2331
2438
3620
3631
3637
3639
3686
3840
3882
3885
3997
4032
4035
4106
4119
4121
4186
4187
4223
4271
4286
4297
4378
4386
4442
4495
4507
4523
4572
4675
4684
4690
4700
4706
4751
4752
4814
4898
4933
4977
5089
5133
5139
5151
5279
5282
5289
5290
5295
5325
5330
5340
5348
5361
5370
5373
5390
5395
5763
5812
5866
5889
6083
6137
6158
6389
6617
6652
6770
6774
6776
6815
6821
6859
6868
6870
6882
6954
6979
7005
7009
7014
7074
7116
7118
7140
7172
7173
7182
7197
7206
7216
7237
7238
7265
7274
7275
7288
7291
7301
7303
7312
7325
7328
7337
7340
7408
7419
7434
7522
7528
7598
7610
7681
7731
7734
7770
8095
8096
8107
8152
8163
8208
8215
8253
8370
8375
8376
8407
8408
8526
8596
8609
8637
8824
8861
8875
9034
9180
9218
9266
9276
9294
9304
9312
9337
9341
9354
9363
9365
9414
9435
9443
9444
9500
9506
9545
9557
9759
9760
9766
9768
9935
9962
9972
10004
10219
10228
10229
10230
10232
10257
10260
10266
10271
10285
10318
10329
10336
10337
10338
10346
10351
10437
10441
10481
10511
10517
10519
10520
10522
10532
10570
10571
10595
10605
10607
10630
10833
10854
10864
10885
10941
10950
10960
10962
10966
11062
11152
11159
11318
11351
11364
11374
11389
11657
11775
11781
11799
11843
11869
11892
11922
11926
12070
12081
12097
12163
12189
12287
12432
27637
28541
28625
28665
28670
28674
28692
28725
28727
28989
29037
29042
29044
29107
29135
29184
29200
29421
29432
29433
29594
29595
[ 591 ]
125
134
161
179
193
234
245
808
812
813
819
931
936
941
1072
1241
2437
2448
2452
3609
3627
3628
3729
3731
3738
3826
3833
3870
4001
4024
4082
4086
4169
4179
4203
4221
4294
4382
4396
4423
4429
4430
4475
4530
4550
4712
4753
4789
4866
4880
4881
4889
4953
4979
4982
5013
5021
5073
5271
5288
5310
5326
5343
5345
5360
5363
5392
5708
5749
5751
5759
5762
5773
5775
5780
5848
5853
5881
5883
5896
5902
5910
5958
6030
6058
6116
6129
6136
6162
6192
6201
6212
6280
6386
6399
6426
6438
6441
6467
6492
6564
6566
6577
6655
6657
6696
6701
6704
6711
6722
6743
6746
6773
6796
6802
6832
6847
6874
6887
6913
6927
6938
6950
6986
7016
7064
7122
7145
7234
7236
7270
7271
7309
7310
7345
7346
7347
7354
7356
7391
7402
7427
7484
7544
7597
7600
7603
7605
7628
7633
7659
7660
7715
7717
7736
7848
8148
8205
8351
8366
8384
8388
8616
8617
8626
8647
8679
8832
8868
8871
9075
9090
9209
9258
9297
9310
9348
9351
9353
9358
9382
9420
9429
9438
9458
9512
9525
9527
9539
9560
9562
9626
9650
9723
9733
9758
9769
9795
9840
9931
9955
9961
9964
9967
10145
10176
10216
10226
10243
10254
10275
10295
10308
10319
10320
10328
10334
10355
10367
10418
10430
10432
10438
10443
10490
10572
10574
10578
10623
10625
10814
10825
10826
10840
10842
10847
10880
10884
10886
10890
10901
10975
10983
11022
11026
11032
11038
11074
11075
11080
11085
11143
11171
11223
11253
11287
11299
11312
11313
11331
11369
11372
11567
11568
11569
11598
11643
11646
11682
11688
11693
11697
11740
11743
11745
11752
11756
11764
11792
11851
11858
11862
11865
11891
11913
11917
12024
12080
12106
12109
12144
12153
12448
12604
16309
27088
27651
28407
28420
28448
28528
28542
28595
28691
28959
28985
28994
29020
29030
29033
29034
29041
29091
29098
29101
29121
29134
29176
29201
29223
29419
29551
[ 592 ]
54
169
172
932
1229
1263
1370
2450
3730
3872
4175
4196
4200
4202
4216
4219
4388
4393
4398
4400
4402
4409
4473
4487
4688
4691
4692
4695
4699
4704
4763
4764
4804
4879
4934
4947
4995
5018
5071
5357
5371
5772
5801
5806
5810
5882
6003
6113
6117
6135
6179
6195
6211
6358
6385
6414
6482
6559
6574
6578
6596
6641
6660
6669
6697
6725
6729
6782
6790
6791
6795
6803
6840
6848
6896
6897
6918
6919
6970
6988
7003
7013
7076
7077
7121
7142
7217
7221
7227
7284
7292
7293
7341
7504
7506
7511
7594
7632
7664
7671
7682
7713
7735
7737
7742
7774
8348
8470
8532
8538
8541
8559
8593
8594
8598
8612
8685
8688
8870
8889
9210
9219
9225
9277
9278
9306
9387
9413
9441
9498
9522
9538
9548
9554
9569
9571
9598
9600
9608
9616
9620
9630
9633
9641
9653
9661
9678
9749
9756
9774
9778
9783
9807
9823
9859
9910
9927
9929
9954
9966
9978
9979
9982
9983
10016
10020
10151
10154
10178
10200
10201
10204
10205
10206
10225
10251
10297
10354
10366
10554
10575
10577
10849
10853
10865
10877
10895
10970
10974
10984
11005
11021
11023
11027
11034
11035
11040
11043
11045
11070
11076
11122
11148
11172
11183
11192
11194
11226
11249
11252
11282
11283
11309
11356
11366
11370
11477
11489
11565
11577
11579
11587
11588
11600
11612
11628
11641
11642
11655
11685
11687
11696
11705
11727
11733
11738
11746
11763
11783
11784
11794
11808
11815
11819
11849
11864
11888
11910
11977
11985
11987
11994
12060
12075
12089
12101
12104
12105
12113
12121
12175
12176
12205
13078
16192
16193
16225
16266
16268
16277
16284
16285
16298
16317
16329
21643
26990
27237
27565
27605
27626
28131
28318
28351
28408
28445
28536
28638
28690
28693
28705
28734
28819
28878
28962
29025
29086
29089
29114
29171
29179
29228
29266
29267
29301
29409
29414
29454
29462
29500
29558
29569
29777
[ 593 ]
90
171
175
187
188
204
219
224
1274
1295
4168
4208
4218
4391
4392
4488
4685
4703
4705
4732
4739
4742
4788
4877
4939
5102
5286
5750
5839
5859
5868
5940
5954
6123
6168
6169
6215
6332
6645
6670
6699
6717
6777
6801
6849
6928
7295
7505
7666
7667
7733
8363
8554
8560
8562
8582
8588
8693
9190
9192
9196
9223
9357
9536
9572
9573
9577
9586
9603
9610
9634
9640
9658
9671
9706
9707
9709
9717
9718
9738
9771
9781
9784
9792
9803
9835
9846
9878
9891
9907
9909
9917
9938
9941
9958
9959
9960
9973
9976
9989
9995
9998
10024
10040
10085
10126
10155
10157
10163
10166
10194
10195
10208
10250
11033
11101
11115
11125
11129
11137
11139
11142
11177
11197
11266
11284
11294
11310
11333
11342
11382
11387
11401
11402
11411
11421
11429
11467
11468
11476
11482
11514
11540
11551
11554
11562
11585
11609
11611
11638
11662
11678
11679
11686
11702
11729
11741
11898
11947
11950
12009
12013
12063
12116
12139
12469
12618
12619
12621
13108
13195
13373
13694
14054
15797
15801
15829
15896
15945
16092
16187
16198
16222
16239
16243
16245
16252
16259
16270
16295
16310
16318
17150
18603
21376
21451
21477
21493
21508
21557
21597
21639
21686
21775
21924
22083
27011
27069
27121
27138
27141
27151
27177
27214
27256
27262
27267
27277
27631
27656
28151
28358
28373
28384
28398
28427
28451
28503
28557
28564
28596
28696
28774
28783
28792
28863
28894
28956
28966
28970
29070
29071
29128
29138
29154
29160
29209
29239
29259
29331
29348
29372
29376
29401
29405
29542
29546
29549
29557
29575
29577
29578
29591
29666
29934
29993
[ 594 ]
170
200
209
3827
4207
4680
4717
4914
4916
5809
5847
6176
6410
6481
6800
6890
6891
6907
6930
7229
7538
8545
8555
8587
8590
8592
9193
9198
9567
9578
9644
9676
9702
9711
9731
9782
9805
9819
9821
9837
9838
9845
9863
9873
9881
9914
9957
9991
10013
10028
10046
10047
10076
10078
10081
10086
10160
10576
10990
11106
11134
11221
11433
11457
11458
11462
11463
11498
11505
11521
11526
11539
11610
11939
11942
11945
11969
12033
12039
12093
12125
12172
12586
12622
12640
12656
12906
13048
13077
13158
13183
13193
13194
13697
13703
13712
13718
13746
13760
14001
14450
14485
14503
15588
15757
15764
15791
15803
15824
15849
15859
15865
15866
15885
15894
15899
15900
15905
15920
15943
15946
15949
15955
15957
15958
15968
16017
16023
16137
16158
16161
16167
16168
16179
16183
16196
16220
16231
16238
16249
16255
16257
16279
16297
16331
16370
16536
16876
16956
17169
17175
17180
17190
17191
17199
17225
17227
17281
17370
17410
17556
17569
18586
18604
21299
21449
21450
21492
21506
21514
21550
21565
21566
21585
21594
21605
21627
21718
21944
21966
22018
22026
22079
22094
27012
27036
27075
27082
27133
27179
27219
27231
27234
27261
27284
27547
27561
27564
27612
27618
27649
27660
27687
27721
27762
27765
27769
27782
27784
28119
28127
28152
28153
28290
28308
28322
28357
28378
28385
28457
28461
28496
28522
28546
28562
28590
28735
28746
28755
28758
28789
28791
28799
28801
28821
28822
28824
28835
28840
28897
28898
28911
28957
28973
28978
29139
29140
29145
29152
29213
29231
29237
29254
29296
29313
29333
29472
29481
29498
29532
29533
29540
29662
29771
29780
29789
29936
29986
29995
[ 595 ]
5841
6122
6199
6807
6894
8581
9582
9585
9645
9669
9687
9703
9708
10067
10074
10084
10095
10110
11343
11407
11423
11456
11464
11504
11537
11544
11558
11618
11712
11948
11953
11997
12020
12040
12859
12927
12950
12969
12984
12988
13085
13092
13100
13110
13115
13141
13156
13164
13167
13168
13185
13198
13255
13272
13277
13289
13318
13362
13676
13677
13689
13739
13787
13807
14016
14029
14049
14363
14444
14446
14447
14492
14497
14535
15098
15281
15299
15318
15323
15326
15508
15596
15723
15775
15784
15785
15806
15816
15862
15864
15903
15919
15922
15937
15938
15977
15998
16019
16036
16049
16055
16061
16070
16112
16116
16123
16150
16155
16163
16234
16235
16242
16515
16581
16592
16691
16758
16778
16791
16816
16863
16906
16935
16936
16939
17026
17132
17164
17165
17174
17188
17231
17233
17275
17278
17290
17349
17361
17369
17400
17401
17414
17415
17530
17624
18566
18583
18595
18616
18619
18633
21271
21272
21303
21307
21462
21463
21512
21535
21538
21541
21548
21651
21695
21711
21732
21746
21774
21782
21845
21854
21868
21886
21929
21945
21947
21967
22042
22080
22081
26844
26978
26979
26986
27113
27115
27124
27126
27163
27181
27194
27195
27198
27205
27217
27223
27229
27289
27291
27395
27477
27526
27534
27537
27539
27544
27546
27550
27553
27558
27568
27572
27574
27601
27615
27619
27620
27628
27678
27734
27738
27742
27745
27779
27785
27818
27826
27827
27837
27855
27902
27980
28024
28061
28134
28145
28163
28336
28365
28375
28388
28391
28424
28430
28433
28455
28456
28524
28554
28588
28711
28713
28731
28747
28748
28764
28765
28776
28779
28781
28798
28803
28826
28836
28864
28891
28904
28906
28918
28943
28976
28980
29096
29253
29258
29261
29343
29344
29358
29360
29460
29527
29534
29535
29609
29669
29680
29772
29788
29801
29805
29876
29918
29920
29990
29998
[ 596 ]
60
65
70
74
4210
6889
9689
10051
10055
10071
10098
10099
10107
10109
10115
11473
11513
11527
11559
12006
12662
12669
12694
12871
12874
12888
12908
12915
12922
12925
12962
12966
12974
12983
13086
13139
13146
13200
13203
13210
13229
13246
13273
13287
13291
13307
13320
13329
13334
13336
13353
13371
13391
13455
13469
13506
13719
13720
13742
13763
13766
13884
13890
13894
14023
14024
14310
14336
14338
14362
14371
14372
14374
14379
14390
14441
14445
14495
14506
14510
14515
14558
14650
14656
14907
14920
15097
15103
15105
15113
15122
15219
15233
15252
15268
15282
15283
15284
15285
15311
15316
15334
15337
15368
15382
15391
15403
15437
15444
15455
15464
15467
15469
15493
15545
15547
15569
15601
15647
15651
15656
15676
15694
15718
15725
15740
15758
15759
15786
15819
15825
15846
15848
15852
15875
15888
15907
15914
15925
15961
15964
15983
15984
15999
16000
16003
16006
16010
16033
16038
16043
16074
16079
16083
16086
16089
16122
16145
16185
16207
16407
16410
16412
16436
16437
16464
16489
16506
16511
16552
16575
16697
16700
16733
16766
16775
16786
16811
16830
16838
16858
16870
16873
16895
16905
16944
16948
16971
16993
17041
17049
17053
17067
17068
17073
17091
17095
17123
17126
17146
17161
17185
17200
17207
17218
17224
17251
17252
17258
17277
17299
17304
17404
17405
17407
17418
17419
17435
17437
17451
17452
17456
17491
17495
17559
17574
17604
17622
17637
18561
18567
18573
18624
18663
18673
18709
18746
21224
21238
21280
21283
21295
21297
21301
21312
21321
21325
21366
21369
21372
21438
21440
21448
21511
21518
21525
21626
21664
21673
21688
21689
21691
21738
21771
21773
21788
21805
21808
21814
21830
21851
21870
21895
21897
21922
21935
21965
21986
22019
22020
22027
22138
27158
27343
27344
27398
27480
27504
27517
27525
27570
27607
27673
27696
27709
27724
27741
27749
27756
27771
27772
27810
27833
27842
27864
27891
27956
28018
28023
28025
28093
28143
28288
28296
28297
28302
28354
28360
28362
28432
28434
28480
28483
28494
28515
28527
28712
28767
28804
28827
28828
28868
28907
29235
29236
29285
29312
29384
29495
29516
29517
29522
29537
29656
29673
29692
29720
29723
29751
29770
29873
29939
29944
29988
[ 597 ]
1288
1289
1300
9690
10049
11455
12695
12737
12741
12742
12757
12760
12850
12901
12910
12940
12943
12947
12965
12972
12973
13032
13038
13044
13049
13072
13090
13099
13112
13143
13169
13175
13177
13191
13197
13239
13243
13249
13275
13328
13355
13435
13436
13444
13467
13472
13491
13499
13507
13664
13672
13753
13813
13858
13862
13878
13888
14320
14344
14368
14433
14470
14471
14472
14473
14493
14500
14514
14520
14530
14649
14663
14699
14728
14732
14747
14781
14797
14849
14886
14891
14915
14992
14999
15078
15099
15147
15168
15170
15231
15248
15265
15270
15276
15279
15298
15319
15331
15342
15346
15356
15365
15366
15373
15379
15383
15404
15415
15424
15426
15427
15429
15445
15453
15457
15475
15478
15488
15532
15540
15559
15574
15624
15642
15654
15658
15661
15683
15687
15699
15749
15837
15869
15980
16005
16009
16034
16073
16395
16421
16463
16474
16478
16507
16512
16528
16572
16596
16600
16606
16616
16630
16638
16656
16686
16690
16702
16715
16717
16751
16765
16768
16774
16781
16788
16789
16797
16807
16809
16815
16823
16843
16853
16871
16883
16886
16887
16904
16907
16918
16972
16986
16987
17072
17094
17127
17134
17157
17182
17216
17239
17240
17241
17259
17272
17307
17341
17346
17362
17378
17386
17392
17393
17421
17440
17449
17459
17463
17474
17479
17497
17514
17539
17541
17586
17618
18564
18569
18719
18726
18735
21244
21247
21292
21293
21296
21331
21335
21346
21353
21382
21395
21397
21410
21442
21496
21600
21666
21757
21766
21768
21825
21826
21828
21833
21866
21887
21908
21916
22054
22068
27187
27330
27342
27370
27375
27381
27386
27402
27433
27474
27512
27513
27541
27600
27693
27701
27707
27717
27731
27733
27803
27823
27838
27852
27867
27897
27916
27942
28028
28035
28051
28053
28056
28086
28096
28102
28141
28172
28189
28232
28369
28465
28507
28509
28523
28917
28920
28930
28932
28933
28942
29074
29286
29288
29315
29393
29521
29523
29614
29616
29631
29668
29672
29694
29739
29840
29871
29910
29916
29952
29981
[ 598 ]
68
1302
8584
10108
12712
12713
12786
12849
12880
12884
12896
12991
12992
13007
13033
13054
13062
13123
13125
13133
13217
13219
13221
13271
13356
13410
13430
13434
13445
13459
13461
13483
13486
13497
13504
13515
13516
13534
13545
13644
13650
13661
13666
13866
13873
14341
14349
14350
14392
14407
14468
14507
14532
14536
14542
14544
14554
14577
14578
14582
14586
14596
14597
14606
14648
14658
14660
14677
14700
14718
14725
14729
14752
14776
14863
14864
14872
14883
14888
14889
14904
14905
14910
14911
14919
14937
14945
14954
14997
15005
15011
15059
15084
15119
15138
15145
15154
15157
15216
15247
15262
15293
15295
15396
15407
15433
15441
15442
15482
15513
15553
15567
15600
15606
15608
15631
15635
15660
15733
15736
15823
16153
16416
16417
16420
16441
16477
16490
16498
16502
16508
16533
16553
16571
16584
16588
16591
16613
16622
16623
16634
16644
16653
16659
16660
16685
16694
16722
16792
16800
16812
16826
16827
16852
16888
16902
16927
16985
16999
17002
17012
17029
17060
17064
17082
17083
17084
17086
17087
17093
17096
17097
17100
17122
17266
17310
17315
17483
17502
17503
17508
17523
17544
17584
17598
18674
18684
18698
18702
18717
18720
18731
18734
18742
18757
21248
21255
21282
21285
21287
21310
21326
21327
21345
21350
21368
21400
21425
21431
21708
21731
21796
21816
21824
21827
21884
21912
21920
21949
21951
21976
21990
22050
22053
27324
27329
27331
27335
27346
27348
27353
27357
27404
27407
27408
27410
27412
27413
27453
27455
27475
27585
27593
27598
27679
27718
27730
27940
28008
28009
28043
28068
28077
28247
28248
28915
28931
28939
29316
29383
29391
29520
29612
29735
29754
29755
29854
29870
29975
[ 599 ]
12672
12717
12748
12750
12754
12758
12759
12767
12773
12780
12782
12811
12837
12879
13000
13008
13009
13066
13395
13399
13427
13429
13439
13443
13448
13449
13454
13466
13480
13508
13520
13533
13535
13546
13573
13600
13609
13615
13619
13662
13974
14317
14408
14551
14557
14580
14609
14617
14629
14638
14641
14653
14668
14690
14701
14705
14720
14736
14740
14741
14753
14777
14779
14796
14817
14823
14825
14838
14846
14860
14865
14878
14881
14898
14900
14931
14936
14943
14944
14951
14955
14971
14975
14978
14993
15007
15023
15050
15062
15066
15067
15070
15073
15082
15092
15139
15188
15201
15255
15289
15401
15447
15483
15490
15500
15544
15571
15572
15665
16031
16531
16554
16589
16604
16802
16837
16901
16975
16980
16995
17004
17021
17032
17038
17128
17265
17436
17476
17481
17513
17612
17614
18680
18686
21390
21820
21995
27303
27307
27318
27323
27403
27425
27430
27432
27449
27463
27466
27473
27895
27943
28039
28099
28173
28228
28243
28244
28272
28281
28283
29687
29700
29703
29728
29849
29858
29892
29982
[ 600 ]
12766
12779
12798
12805
12826
13011
13061
13438
13442
13526
13544
13547
13572
13576
13608
13612
14401
14411
14574
14722
14769
14789
14819
14836
14851
14961
14981
14988
14990
15013
15014
15019
15026
15039
15057
15058
15064
15144
15185
15198
15202
17059
17061
17648
18736
21243
21266
21829
27306
27333
27409
27416
27435
27947
28004
28200
28215
28238
28239
28252
28261
28273
28275
28276
29852
29966
[ 601 ]
12749
12777
12788
12828
13248
13524
13548
13584
13617
14630
14778
14807
14821
14834
14839
15044
15049
15056
15173
15191
15211
27470
28211
28235
[ 602 ]
13417
13564
15193
28259
28260
[ 609 ]
2770
[ 610 ]
2774
[ 612 ]
2640
2669
2781
3181
4633
[ 613 ]
355
983
1826
1828
2500
2576
2629
2635
2760
2761
2767
2876
3188
3205
4635
4638
4642
7922
[ 614 ]
389
534
567
670
982
1153
1173
1764
1766
2488
2493
2503
2504
2552
2577
2600
2632
2633
2643
2667
2673
2759
2898
3133
3167
3168
3174
3177
3198
3206
3461
3554
4340
4344
4641
9107
9110
10711
[ 615 ]
384
486
536
537
669
961
990
1164
1821
2169
2218
2221
2483
2499
2505
2550
2578
2579
2612
2622
2655
2661
2665
2675
2733
2823
2826
2865
2897
3126
3176
3189
3192
3201
3203
3350
3365
3424
3442
3449
3465
3555
3967
4354
7916
7923
8119
8274
8305
8306
8313
8343
10714
[ 616 ]
350
449
459
466
482
485
614
620
634
640
649
663
1097
1149
1169
1176
1410
1506
2164
2167
2189
2195
2196
2215
2246
2263
2266
2279
2288
2292
2293
2399
2512
2519
2521
2542
2545
2549
2616
2688
2699
2736
2737
2868
2889
2891
2908
2909
2910
2917
2920
3077
3090
3107
3109
3117
3119
3200
3209
3270
3292
3304
3305
3313
3315
3348
3407
3430
3466
3479
3556
3562
3573
3808
3951
3968
4043
4244
4336
4339
4585
4646
4647
4648
4838
5505
5526
5566
5589
5595
5659
7928
8276
8283
8333
9099
10715
10718
[ 617 ]
33
254
279
309
358
376
412
416
451
458
464
472
543
544
621
625
626
638
659
666
675
678
691
915
959
977
1000
1005
1045
1087
1155
1160
1200
1509
1510
1569
1778
2184
2226
2227
2238
2244
2245
2256
2282
2361
2362
2391
2400
2495
2510
2515
2517
2534
2574
2703
2724
2743
2745
2882
2884
2905
2915
2948
3076
3082
3191
3195
3237
3268
3297
3334
3337
3367
3445
3452
3467
3478
3480
3483
3509
3517
3520
3568
3586
3807
3811
3820
3899
3908
3909
4070
4145
4148
4158
4236
4317
4322
4353
4468
4587
4604
4613
4618
4619
4621
4623
5463
5464
5536
5556
5587
5599
5602
5609
5658
5730
5987
6043
6044
7912
7942
7949
7991
8045
8120
8126
8234
8235
8239
8290
8294
8325
8339
8418
8478
8499
8766
8802
8842
10651
10716
[ 618 ]
272
308
347
379
413
415
417
436
477
491
539
559
648
676
688
689
690
703
717
730
744
845
912
968
997
1001
1002
1003
1076
1190
1191
1211
1394
1504
1515
1527
1957
2141
2147
2148
2183
2206
2258
2259
2274
2318
2341
2383
2414
2477
2525
2528
2538
2568
2586
2718
2719
2722
2747
2789
2842
2936
2981
3020
3070
3242
3246
3249
3258
3259
3272
3293
3317
3402
3408
3450
3468
3471
3487
3495
3497
3504
3508
3514
3548
3585
3587
3664
3672
3676
3697
3746
3770
3775
3789
3819
3858
3897
3925
3940
3953
3987
4036
4061
4101
4151
4242
4311
4333
4454
4457
4460
4536
4595
4655
5214
5244
5403
5412
5426
5446
5497
5533
5535
5586
5597
5603
5605
5615
5691
5735
5985
6053
6150
7000
7001
7556
7808
7817
7865
7927
7947
7948
7954
8018
8040
8041
8067
8069
8117
8121
8123
8127
8131
8230
8268
8284
8291
8292
8328
8329
8341
8434
8492
8767
8944
8975
9009
9012
9105
9116
9344
10649
10670
10674
10690
10704
10719
10726
10727
10733
10751
29442
[ 619 ]
28
251
280
287
316
324
329
334
346
348
349
411
460
475
478
500
525
579
580
586
588
590
650
686
724
759
799
882
970
971
978
1059
1091
1113
1117
1120
1125
1144
1189
1202
1206
1208
1247
1250
1347
1377
1400
1413
2213
2283
2312
2333
2339
2369
2392
2411
2472
2479
2529
2530
2712
2723
2744
2801
2806
2857
2907
2938
3015
3214
3222
3232
3234
3241
3322
3368
3375
3397
3403
3415
3507
3516
3547
3588
3592
3647
3722
3759
3768
3793
3794
3813
3862
3901
3904
3922
3978
3989
4039
4044
4048
4075
4094
4161
4228
4245
4369
4413
4450
4510
4535
4547
4590
4608
4609
4670
4756
4824
4828
4832
4837
5007
5086
5115
5172
5175
5181
5194
5313
5404
5419
5429
5431
5458
5547
5582
5614
5616
5623
5629
5631
5650
5654
5744
5928
5967
6028
6235
6604
6863
6982
7084
7157
7305
7360
7363
7414
7490
7795
7801
7809
7816
7826
7831
7834
7878
7881
7902
7935
7945
7946
7955
7959
7988
8001
8015
8028
8037
8066
8076
8110
8124
8125
8136
8143
8144
8157
8180
8265
8266
8345
8360
8436
8445
8449
8453
8496
8509
8661
8702
8746
8784
8789
8796
8804
8807
8820
8836
8919
8952
8956
8972
8974
8978
9006
9028
9052
9120
9124
9161
9326
9397
9456
10450
10642
10658
10666
10675
10700
10731
10743
10745
10747
10748
10750
10753
10757
10760
10761
10766
28617
29443
[ 620 ]
29
236
249
328
362
364
421
426
498
521
542
549
585
600
725
735
754
796
853
859
870
928
949
950
964
965
969
1009
1013
1014
1015
1143
1146
1196
1243
1258
1334
1338
1353
1366
1408
1501
2262
2314
2348
2442
2470
2716
2721
2975
3002
3029
3031
3053
3061
3067
3219
3233
3321
3396
3528
3645
3673
3701
3711
3713
3725
3758
3835
3960
4076
4089
4095
4162
4248
4249
4261
4290
4301
4304
4328
4329
4411
4453
4458
4500
4528
4537
4549
4559
4652
4663
4761
4820
4843
4850
4851
4853
4856
4858
4859
4920
4967
5025
5074
5117
5136
5140
5142
5146
5159
5161
5162
5163
5176
5178
5196
5200
5226
5232
5236
5264
5265
5317
5398
5401
5531
5549
5552
5578
5601
5610
5630
5649
5693
5745
5784
5788
5930
5992
6009
6146
6219
6233
6239
6240
6245
6540
6585
6738
6740
6819
6861
6864
6872
6879
6994
7002
7032
7039
7041
7042
7060
7069
7090
7139
7167
7186
7200
7204
7248
7410
7447
7575
7688
7747
7756
7822
7825
7835
7854
7866
7931
7968
7985
7996
8004
8010
8012
8031
8049
8058
8091
8102
8103
8113
8115
8137
8160
8162
8172
8174
8175
8177
8184
8211
8213
8229
8246
8249
8267
8358
8378
8395
8403
8415
8417
8428
8435
8437
8448
8462
8463
8468
8477
8507
8508
8668
8681
8683
8706
8743
8819
8822
8823
8833
8840
8858
8865
8894
8895
8908
8933
8940
8984
8985
8996
9003
9007
9044
9045
9047
9133
9163
9201
9203
9245
9248
9255
9283
9342
9395
9399
9402
9502
9614
10453
10505
10508
10565
10602
10644
10648
10661
10693
10802
10807
12449
28619
28653
28658
28661
28668
29562
[ 621 ]
17
18
23
24
45
117
197
240
241
286
508
552
713
789
804
824
830
901
920
1130
1139
1186
1265
1337
1340
1383
1384
1390
2296
2467
2796
2849
2856
3014
3030
3048
3052
3057
3059
3221
3331
3646
3649
3655
3662
3694
3750
3756
3791
3838
3839
3867
3959
3998
4033
4088
4111
4120
4166
4171
4253
4265
4273
4302
4306
4366
4373
4381
4404
4424
4425
4432
4446
4472
4501
4514
4524
4538
4553
4554
4558
4661
4664
4673
4674
4819
4827
4861
4864
4868
4884
4897
4926
4929
4970
4992
5004
5010
5029
5031
5083
5093
5119
5128
5137
5204
5223
5237
5248
5262
5263
5272
5284
5292
5297
5304
5306
5323
5327
5364
5375
5380
5385
5388
5579
5613
5742
5785
5893
5924
5950
5959
5976
6029
6032
6059
6067
6148
6160
6218
6242
6351
6547
6563
6591
6636
6640
6676
6680
6684
6739
6750
6772
6871
6880
6881
6883
6899
6945
6946
6951
7010
7020
7037
7038
7040
7070
7073
7080
7127
7132
7133
7149
7150
7208
7240
7252
7254
7306
7409
7451
7467
7473
7494
7515
7523
7552
7559
7568
7583
7584
7589
7637
7657
7694
7706
7707
7708
7718
7771
7778
7811
7812
7814
7850
7856
7860
8032
8061
8074
8079
8093
8138
8139
8145
8161
8165
8191
8194
8203
8204
8216
8248
8260
8347
8352
8372
8374
8380
8400
8402
8412
8423
8511
8523
8607
8624
8631
8632
8636
8644
8671
8673
8697
8738
8783
8829
8852
8882
8897
8898
8899
8946
8967
8969
8976
8986
8992
9021
9039
9046
9059
9069
9092
9131
9132
9176
9208
9252
9286
9289
9293
9315
9322
9329
9339
9343
9369
9394
9417
9424
9440
9463
9490
9508
9934
10280
10288
10383
10388
10399
10406
10451
10455
10456
10474
10497
10498
10499
10528
10542
10547
10553
10608
10612
10617
10620
10684
10798
10812
10823
10908
10910
10911
10912
10922
10932
10933
10934
10940
11315
11317
11376
11758
11766
11769
11855
11860
11872
11873
11877
11881
11920
11931
28344
28610
28613
28663
29027
29038
29047
29102
29189
29446
[ 622 ]
20
38
48
107
122
246
304
794
823
826
838
858
867
903
1066
1073
1132
1138
1259
1323
2180
2428
2432
2446
2460
2997
3069
3606
3612
3614
3615
3624
3687
3696
3728
3823
3834
3866
3875
4072
4112
4181
4185
4194
4266
4269
4274
4275
4375
4422
4428
4479
4485
4494
4499
4503
4519
4522
4533
4552
4556
4575
4678
4702
4731
4750
4801
4862
4865
4910
4918
4922
4935
4956
4975
5024
5034
5088
5090
5134
5153
5224
5314
5329
5341
5383
5387
5393
5394
5748
5862
5867
5943
6060
6138
6152
6170
6244
6349
6463
6543
6619
6695
6749
6751
6753
6758
6766
6771
6775
6793
6808
6809
6813
6952
6971
6974
6985
6987
6991
7022
7028
7036
7065
7068
7082
7102
7107
7110
7126
7129
7148
7187
7194
7195
7207
7213
7239
7246
7251
7262
7276
7283
7286
7307
7349
7352
7367
7368
7420
7421
7433
7437
7439
7440
7461
7499
7540
7581
7592
7595
7601
7602
7645
7656
7680
7732
7777
7790
8051
8053
8108
8153
8197
8198
8214
8220
8353
8364
8390
8413
8551
8558
8571
8601
8633
8662
8690
8729
8853
8854
8881
8896
8924
8931
8954
9053
9058
9068
9074
9091
9151
9188
9200
9204
9226
9254
9267
9280
9313
9316
9318
9319
9352
9364
9368
9410
9418
9426
9439
9445
9457
9461
9464
9466
9474
9496
9497
9507
9540
9541
9544
9556
9724
9776
9828
9933
9986
10214
10218
10236
10258
10264
10276
10287
10325
10330
10335
10342
10353
10360
10380
10402
10405
10407
10413
10417
10428
10442
10469
10475
10476
10489
10494
10525
10530
10533
10569
10589
10609
10645
10801
10843
10867
10882
10937
10957
11016
11025
11058
11065
11228
11322
11759
11770
11774
11856
11878
11925
12145
12612
12613
27642
28530
28608
28609
28612
28651
28679
28704
29004
29056
29057
29090
29110
29133
29205
29350
29417
29447
29596
29600
29602
29603
29604
29606
[ 623 ]
113
123
135
140
152
186
229
336
779
782
788
822
938
942
1220
1240
1368
1372
2451
3737
3830
3869
3871
4031
4298
4360
4361
4363
4383
4397
4419
4438
4441
4498
4689
4693
4698
4713
4730
4762
4795
4802
4803
4811
4872
4891
4930
4938
4949
4978
4980
4981
4994
5033
5048
5077
5110
5280
5358
5391
5399
5752
5756
5774
5781
5813
5854
5887
5891
5898
5903
5909
6181
6208
6279
6344
6360
6377
6402
6433
6522
6532
6542
6545
6554
6575
6576
6581
6582
6590
6609
6611
6626
6646
6647
6651
6654
6688
6693
6706
6713
6747
6763
6792
6794
6846
6852
6925
6966
7006
7105
7111
7225
7235
7272
7285
7299
7302
7355
7385
7396
7417
7418
7424
7429
7446
7500
7533
7545
7558
7647
7661
7683
7722
7772
8109
8146
8149
8200
8261
8381
8410
8471
8561
8597
8618
8620
8684
8715
8869
8872
8923
9093
9213
9214
9215
9263
9268
9275
9303
9309
9332
9355
9407
9409
9419
9432
9491
9492
9510
9513
9520
9529
9533
9537
9553
9570
9595
9602
9624
9705
9796
9797
9813
9816
9829
9885
9903
9904
9936
9939
9947
9985
10005
10130
10131
10133
10144
10153
10172
10240
10253
10256
10272
10292
10293
10347
10412
10414
10491
10510
10514
10573
10584
10626
10816
10817
10829
10830
10841
10848
10858
10870
10927
10931
10946
10947
10959
10972
10976
10982
10986
10995
11007
11011
11044
11050
11063
11087
11145
11146
11153
11160
11189
11227
11238
11239
11293
11301
11319
11358
11392
11493
11570
11578
11607
11640
11677
11689
11692
11722
11742
11748
11765
11785
11798
11848
11850
11863
11912
11916
11924
12026
12112
12130
12134
12149
12184
12615
13704
16264
27259
27632
27644
27645
27652
28534
28642
28676
28724
28752
28958
28960
28967
28991
29003
29007
29011
29022
29116
29118
29136
29165
29166
29168
29183
29212
29224
29424
29449
[ 624 ]
120
166
181
199
203
785
787
811
1217
1230
1276
3626
3732
3733
3829
3831
4389
4394
4421
4440
4481
4497
4568
4686
4715
4740
4791
4871
4878
4882
4912
4915
4945
4983
5003
5016
5039
5042
5101
5767
5769
5885
5901
5907
6191
6200
6209
6282
6284
6285
6383
6422
6439
6534
6535
6633
6659
6663
6665
6716
6721
6723
6728
6810
6885
6888
6909
6932
6949
7007
7123
7143
7174
7176
7180
7226
7277
7279
7290
7351
7386
7399
7425
7502
7509
7529
7546
7607
7665
7669
7684
7716
7729
7730
7744
8564
8599
8610
8648
8687
8873
9183
9274
9384
9487
9511
9523
9531
9555
9563
9590
9604
9612
9617
9619
9621
9623
9655
9662
9664
9665
9681
9720
9721
9722
9744
9794
9802
9843
9860
9916
9924
9942
9945
9946
9952
10002
10008
10091
10129
10135
10137
10152
10198
10207
10209
10211
10234
10261
10273
10283
10300
10302
10341
10416
10422
10837
10850
10860
10898
10949
10954
10985
10987
10997
10998
11006
11009
11029
11048
11077
11104
11120
11133
11144
11166
11168
11175
11193
11200
11225
11247
11275
11286
11307
11367
11380
11399
11400
11436
11490
11491
11621
11670
11680
11714
11744
11753
11757
11782
11885
11890
11908
11961
11970
12028
12065
12084
12206
12599
16209
16226
16263
16287
16311
16934
21610
27085
27200
27221
27245
27257
27272
27634
27635
27636
27653
28309
28383
28394
28415
28543
28592
28593
28671
28675
28700
28701
28702
28759
28786
28971
28982
28998
29000
29006
29017
29032
29120
29163
29164
29169
29174
29182
29186
29197
29208
29240
29270
29304
29328
29349
29351
29418
29420
29452
29478
29528
29539
29548
29552
29570
29923
[ 625 ]
192
221
1069
1215
4178
4213
4214
4215
4407
4482
4743
4771
4781
4813
4943
4996
4999
5043
5069
5309
5359
5873
6165
6183
6189
6194
6214
6384
6472
6474
6595
6624
6630
6667
6783
6902
6912
6916
6926
7144
7223
7228
7233
7294
7297
7663
8387
8536
8547
8576
9302
9385
9494
9568
9591
9592
9611
9618
9628
9638
9639
9643
9646
9647
9651
9663
9701
9712
9739
9748
9786
9788
9806
9825
9833
9839
9855
9866
9901
9906
9919
9969
9988
9993
10001
10031
10077
10089
10090
10111
10123
10136
10162
10185
10187
10212
10252
10307
10313
10580
10855
10943
11047
11118
11130
11162
11178
11186
11190
11198
11207
11234
11385
11391
11479
11480
11497
11500
11508
11509
11510
11603
11658
11699
11701
11703
11708
11771
11899
11900
11906
11914
11933
11935
11936
11958
11959
11967
12008
12038
12098
12100
12209
12623
12629
12633
12637
12642
12647
12657
12658
12935
13159
13680
13693
13699
13745
15761
15795
15802
15820
15863
15926
15952
15956
16127
16156
16157
16169
16180
16181
16184
16186
16201
16203
16236
16248
16251
16253
16273
16276
16296
16314
16330
17156
17181
17193
18602
21485
21567
21606
21628
21638
21724
21857
21859
27084
27087
27118
27235
27236
27263
27273
27280
27560
27613
27629
27647
27670
28150
28299
28312
28317
28332
28359
28374
28382
28425
28458
28526
28549
28576
28598
28689
28707
28738
28751
28761
28785
28788
28795
28818
28832
28838
28876
28979
28981
29002
29024
29059
29129
29141
29144
29150
29162
29181
29196
29216
29230
29232
29234
29257
29476
29485
29506
29508
29514
29547
29590
29608
29670
29835
[ 626 ]
89
114
191
215
1226
1292
1294
1320
4212
4786
4806
5017
5710
6187
6303
6306
6369
6718
6778
6892
6906
7535
8580
9659
9673
9682
9698
9710
9715
9751
9752
9753
9789
9820
9834
9851
9894
10017
10073
10080
10116
10119
10121
10122
10127
10161
10186
10980
11131
11215
11344
11410
11422
11441
11450
11503
11517
11542
11543
11710
11901
11943
11981
11995
12017
12177
12585
12588
12631
12639
12660
12684
12934
13149
13162
13174
13205
13206
13252
13292
13341
13367
13369
13372
13687
13692
13707
13717
13724
13729
13778
13779
13780
13782
13784
13791
14002
14327
14333
14334
14464
14516
15313
15360
15410
15585
15587
15721
15754
15773
15776
15777
15783
15805
15827
15830
15858
15860
15890
15913
15924
15941
15947
15953
15978
15987
16018
16047
16095
16118
16131
16135
16143
16148
16154
16172
16173
16178
16189
16212
16223
16227
16233
16240
16265
16267
16281
16289
16302
16304
16921
16953
17171
17294
17295
17388
17412
18600
21455
21473
21491
21504
21513
21545
21613
21619
21631
21636
21640
21684
21714
21970
22069
22087
22091
27112
27186
27201
27209
27215
27254
27294
27571
27622
27624
27627
27659
27671
27674
27783
28117
28124
28158
28160
28295
28307
28314
28335
28337
28350
28352
28376
28377
28380
28386
28403
28436
28439
28479
28482
28497
28505
28547
28548
28560
28563
28583
28684
28685
28732
28737
28740
28741
28762
28763
28796
28830
28839
28845
28851
28865
28877
28889
28892
28936
29064
29065
29072
29081
29094
29097
29155
29211
29217
29218
29233
29248
29250
29260
29273
29297
29307
29321
29324
29338
29370
29377
29398
29399
29403
29412
29455
29492
29764
29773
29779
29781
29808
29926
29932
29937
29989
29991
29994
[ 627 ]
72
99
190
1312
4721
4775
6299
6329
6908
6917
6923
8579
9652
9672
9688
9692
9728
9856
9857
10010
10063
10068
10075
10168
11424
11440
11451
11469
11471
11523
11528
11896
12212
12574
12663
12668
12680
12686
12864
13074
13080
13106
13151
13188
13204
13226
13290
13337
13350
13352
13357
13633
13678
13684
13709
13737
13738
13743
13747
13762
13785
13788
13821
14018
14022
14151
14335
14429
14439
14449
14489
14490
14644
14925
15106
15114
15286
15310
15330
15374
15506
15575
15579
15580
15591
15726
15763
15771
15779
15780
15793
15809
15812
15814
15818
15855
15878
15893
15897
15909
15918
15940
15959
15966
15967
15989
16004
16015
16032
16053
16088
16090
16105
16113
16133
16142
16205
16247
16411
16430
16510
16585
16593
16619
16678
16731
16735
16772
16855
16878
16881
16957
16969
17163
17178
17226
17267
17303
17357
17446
17521
17555
17591
17620
18571
18597
18610
18612
21223
21298
21308
21367
21373
21377
21441
21464
21474
21476
21481
21495
21560
21563
21595
21598
21599
21616
21625
21635
21648
21649
21654
21655
21669
21683
21696
21698
21703
21704
21709
21713
21736
21809
21811
21847
21956
21969
22036
22058
22073
22088
22092
26861
27116
27125
27164
27175
27204
27218
27230
27286
27287
27374
27385
27481
27483
27549
27611
27614
27666
27676
27677
27683
27711
27725
27728
27747
27775
27778
27781
27799
27806
27834
27844
27850
27868
28022
28027
28142
28146
28164
28168
28285
28304
28320
28372
28435
28440
28443
28452
28454
28459
28493
28511
28558
28572
28577
28582
28709
28714
28893
28925
28928
28949
28951
29158
29255
29278
29281
29282
29284
29289
29290
29310
29311
29373
29463
29473
29507
29513
29661
29725
29763
29804
29807
29818
29826
29829
29830
29992
[ 628 ]
63
67
1301
1313
1314
4941
10065
10118
11475
11502
11525
11529
12664
12685
12701
12727
12889
12897
12907
12916
12917
12930
12949
12970
13020
13084
13088
13093
13114
13117
13131
13138
13142
13145
13170
13176
13181
13186
13225
13241
13259
13280
13281
13286
13366
13437
13482
13513
13727
13732
13736
13740
13755
13771
13789
13803
13805
13819
13838
14030
14066
14156
14326
14337
14339
14367
14378
14424
14442
14456
14605
14927
14928
15110
15141
15277
15294
15312
15349
15351
15357
15359
15370
15376
15381
15384
15399
15411
15416
15417
15438
15459
15460
15462
15487
15505
15549
15581
15602
15604
15609
15617
15618
15626
15630
15650
15652
15669
15766
15768
15772
15810
15927
15936
15939
15992
15994
16001
16013
16069
16103
16146
16218
16219
16426
16428
16433
16438
16439
16445
16504
16522
16542
16599
16646
16654
16692
16703
16750
16757
16767
16794
16810
16866
16867
16875
16915
16951
16954
16962
16964
16988
17066
17105
17112
17131
17144
17145
17166
17204
17205
17228
17243
17254
17262
17280
17314
17323
17350
17351
17358
17373
17374
17377
17380
17382
17408
17416
17439
17453
17473
17504
17515
17570
17572
17603
17607
17626
17627
17629
18590
18593
18596
18615
18632
18697
21259
21284
21294
21309
21315
21381
21418
21433
21434
21437
21472
21482
21487
21529
21630
21632
21668
21743
21747
21784
21787
21791
21801
21815
21836
21839
21843
21846
21873
21896
21900
21901
21902
21905
21943
21958
22025
22047
22085
27157
27161
27188
27440
27444
27458
27478
27524
27655
27681
27689
27690
27694
27699
27708
27713
27736
27739
27773
27822
27887
27979
28006
28026
28031
28041
28089
28094
28121
28137
28169
28286
28287
28319
28460
28488
28521
28573
28587
28810
28811
28846
28847
29075
29080
29279
29280
29308
29340
29341
29388
29397
29466
29510
29647
29660
29679
29793
29810
29811
29828
29857
29875
29878
29919
29921
29933
29978
[ 629 ]
71
9686
12708
12714
12718
12843
12865
12877
12893
12895
12900
12902
12905
12956
13018
13040
13042
13071
13105
13119
13129
13134
13199
13223
13242
13250
13258
13304
13314
13331
13358
13379
13393
13431
13484
13542
13559
13631
13632
13668
13786
13811
13855
13865
13883
13885
14314
14340
14348
14358
14361
14366
14380
14426
14435
14451
14499
14501
14509
14623
14643
14645
14661
14662
14666
14696
14698
14749
14882
14887
14912
14929
14977
14984
14994
15024
15032
15035
15095
15101
15123
15142
15146
15152
15175
15221
15227
15228
15246
15263
15317
15344
15392
15428
15461
15535
15554
15556
15576
15616
15638
15644
15645
15646
15678
15680
15681
15691
15695
15701
15703
15705
15728
15730
15742
15787
15847
15975
15976
15991
15993
16028
16060
16076
16111
16147
16408
16442
16446
16479
16483
16525
16535
16544
16545
16548
16564
16577
16579
16590
16597
16601
16609
16612
16663
16681
16795
16814
16817
16819
16847
16872
16885
16963
16990
17003
17006
17031
17046
17048
17069
17074
17099
17111
17113
17121
17124
17125
17198
17209
17211
17217
17219
17249
17255
17271
17274
17312
17316
17319
17353
17376
17395
17430
17470
17472
17475
17485
17487
17489
17501
17522
17550
17590
17595
17597
17599
17605
17610
17623
17638
17642
18681
18692
18715
18721
18761
21236
21242
21245
21250
21261
21277
21290
21323
21357
21394
21401
21406
21443
21521
21767
21812
21813
21823
21878
21899
21954
21977
21978
21979
21988
21999
22012
22033
22067
22090
27325
27364
27378
27390
27569
27588
27596
27691
27692
27859
27885
27886
27890
28013
28014
28016
28021
28033
28059
28097
28107
28108
28110
28221
28367
28512
28514
28516
28552
28566
28567
28860
28916
28919
28921
28923
28945
29390
29496
29497
29620
29658
29684
29730
29744
29812
29865
29887
29909
[ 630 ]
12696
12697
12698
12699
12700
12728
12755
12787
12816
12818
12822
12852
12881
12890
12911
12946
12952
12971
13006
13016
13045
13128
13220
13222
13262
13266
13267
13268
13325
13354
13384
13401
13404
13406
13462
13568
13578
13620
13621
13622
13627
13670
13741
13867
13972
14347
14394
14396
14397
14421
14467
14512
14559
14593
14620
14646
14647
14655
14671
14676
14691
14694
14703
14745
14768
14775
14805
14843
14847
14848
14857
14868
14890
14902
14924
14930
14957
14980
14982
14987
15008
15009
15061
15094
15100
15124
15136
15155
15212
15217
15385
15397
15400
15423
15434
15435
15451
15473
15489
15501
15639
15641
15662
15663
15671
15682
15744
15789
15910
16059
16497
16499
16501
16518
16532
16541
16543
16563
16608
16624
16628
16632
16667
16689
16714
16726
16836
16889
16976
16989
16994
17000
17007
17016
17020
17023
17039
17056
17062
17065
17103
17257
17326
17327
17339
17375
17394
17429
17478
17524
17615
17644
18611
18672
18700
18701
18763
21257
21291
21334
21348
21351
21389
21392
21818
21865
21876
21877
21950
21989
22011
27328
27337
27338
27345
27354
27377
27396
27400
27406
27531
27680
27905
28044
28082
28103
28104
28188
28229
28467
28768
29613
29642
29651
29652
29686
29691
29705
29706
29722
29733
29736
29761
29819
29841
29855
29856
29893
29898
29967
29969
[ 631 ]
12753
12791
12812
12847
12998
13058
13264
13476
13477
13479
13532
13537
13552
13562
13567
13571
13577
13579
13582
13590
13611
13623
13649
13663
14352
14383
14384
14410
14549
14553
14591
14615
14704
14706
14708
14709
14710
14716
14719
14786
14837
14932
14963
14970
14979
15003
15022
15045
15051
15072
15076
15096
15134
15196
15214
15215
15243
15260
15261
15388
15484
15495
15735
16491
16492
16530
16573
16721
16824
16979
16996
16998
17018
17036
17080
17085
17114
17433
17585
17613
17647
18714
21241
21730
21764
21794
22013
27314
27322
27332
27350
27355
27447
27467
28046
28049
28066
28205
28220
28234
28278
28279
29643
29645
29716
29718
29731
29732
29842
29844
29883
29907
29908
[ 632 ]
12743
12762
12785
12830
13013
13063
13067
13397
13418
13428
13523
13543
13574
13580
13583
13587
13592
13594
13614
13659
13667
14592
14603
14669
14684
14707
14723
14767
14782
14790
14794
14800
14853
14873
14942
14947
14953
14969
14986
15015
15016
15038
15047
15068
15131
15133
15184
15208
15224
15525
15528
16487
16629
16640
21332
27934
28073
28081
28194
28227
28237
28240
28251
28266
28277
29628
29697
29698
29965
[ 633 ]
12744
12770
13421
13441
13563
13601
13613
14814
14876
14935
15174
15182
15538
28225
28255
28256
29701
29714
29850
[ 634 ]
14712
15074
15164
15172
28204
[ 635 ]
13525
14832
[ 640 ]
2778
[ 641 ]
2779
2780
[ 642 ]
2769
[ 643 ]
2773
[ 644 ]
2625
3138
3140
3180
4636
[ 645 ]
564
1172
2502
2636
2644
2768
2783
2827
3130
3136
3146
3160
3179
3204
3566
4341
4640
[ 646 ]
354
393
533
1171
1174
2223
2565
2647
2652
2657
2674
2685
2763
2766
2785
2820
2880
2901
3075
3089
3103
3125
3135
3157
3190
3208
3464
3565
7921
[ 647 ]
3
356
391
392
394
481
538
613
660
662
668
677
991
1150
1152
2168
2188
2224
2241
2277
2294
2398
2487
2496
2613
2642
2651
2659
2676
2734
2812
2840
2900
2911
3123
3124
3159
3169
3186
3278
3439
3563
3815
3950
4152
5592
7914
8315
8324
10713
[ 648 ]
6
265
312
352
401
402
403
452
490
545
593
627
1037
1038
1102
1162
1168
1617
1941
2143
2185
2198
2200
2204
2228
2240
2287
2364
2390
2401
2494
2547
2606
2677
2788
2818
2837
2862
2894
3085
3156
3173
3299
3309
3343
3441
3444
3460
3575
3934
3969
4154
4156
4334
4335
4337
4466
4586
4600
4840
5508
5594
5604
5607
5621
5660
5681
6223
7877
7911
7913
7915
7950
8068
8231
8232
8272
8275
8277
8309
8794
8843
9050
9104
9111
[ 649 ]
157
260
261
267
269
371
442
443
526
529
546
569
587
592
667
682
687
960
973
992
1034
1088
1090
1094
1095
1195
1485
1514
1909
2171
2242
2243
2289
2380
2386
2404
2498
2682
2725
2886
2904
2916
2951
3024
3035
3079
3211
3224
3286
3288
3333
3392
3393
3440
3469
3470
3484
3717
3847
3892
3933
3938
4041
4313
4314
4319
4467
4598
4626
4627
4833
4839
5486
5523
5628
6253
6254
7056
7758
7843
7886
7893
7910
7939
8122
8240
8293
8658
8772
8801
8803
8808
9106
9451
10650
10769
[ 650 ]
31
259
277
299
373
377
378
398
400
461
467
512
540
576
584
596
597
599
629
633
657
709
742
746
755
873
874
895
1008
1030
1051
1058
1060
1081
1084
1093
1107
1127
1167
1193
1210
1254
1346
1512
2153
2209
2252
2275
2342
2379
2402
2422
2466
2558
2569
2748
2753
2793
2802
2861
2939
2940
2974
3016
3022
3033
3065
3223
3225
3245
3300
3378
3386
3389
3394
3474
3499
3545
3643
3707
3721
3723
3844
3851
3890
3923
3979
3980
4069
4080
4235
4325
4451
4459
4462
4463
4583
4610
5145
5182
5186
5189
5506
5507
5517
5534
5563
5611
5624
5648
5652
6037
6051
6227
6451
7052
7055
7793
7799
7805
7830
7864
7876
7898
7936
7938
7943
8014
8039
8279
8281
8282
8287
8340
8399
8440
8447
8493
8497
8750
8753
8764
8790
8791
8816
8841
8850
8998
9013
9014
9077
9096
9115
9162
9449
9455
10458
10639
10662
10664
10667
10702
10720
10721
10730
10749
10762
[ 651 ]
14
271
274
290
318
326
399
420
432
575
684
692
696
697
707
732
736
756
767
840
846
848
880
946
1010
1018
1032
1082
1106
1128
1194
1251
1252
1257
1342
1388
2175
2176
2281
2304
2337
2343
2413
2423
2562
2708
2713
2792
2799
2803
2845
2922
2944
3010
3019
3064
3072
3216
3239
3252
3330
3379
3399
3410
3412
3438
3502
3523
3584
3600
3667
3704
3720
3846
3860
3861
3954
3966
4052
4326
4327
4416
4417
4515
4544
4580
4582
4653
4823
4829
4845
4848
4904
4968
5131
5168
5180
5206
5254
5255
5256
5260
5428
5457
5575
5584
5606
5637
5656
5678
6234
6825
6856
6999
7031
7048
7059
7088
7361
7370
7404
7405
7412
7413
7557
7571
7576
7578
7591
7638
7697
7757
7759
7760
7761
7766
7815
7823
7829
7840
7846
7862
7867
7872
7880
7892
7958
7984
8008
8034
8048
8071
8154
8179
8189
8190
8225
8346
8393
8419
8505
8510
8603
8660
8666
8700
8734
8815
8826
8835
8839
8910
8971
8989
9000
9001
9017
9027
9049
9079
9098
9146
9157
9202
9240
9257
9285
9374
9376
9448
9452
9468
10526
10538
10637
10647
10655
10689
10722
10759
10775
10914
29105
[ 652 ]
239
291
295
330
367
429
463
514
645
747
795
837
862
863
885
891
918
927
953
955
1011
1021
1031
1052
1064
1112
1118
1119
1204
1212
1244
1253
1363
1364
1397
2309
2346
2347
2372
2373
2395
2406
2797
2846
2848
2983
3025
3027
3032
3049
3068
3240
3411
3642
3653
3658
3700
3705
3743
3748
3985
4115
4230
4291
4299
4371
4387
4418
4443
4574
4579
4849
4857
4870
4886
4895
4919
4973
5006
5008
5027
5030
5114
5165
5166
5252
5299
5300
5367
5576
5634
5667
5700
5701
5724
5727
5741
5783
5786
5894
6092
6237
6252
6536
6539
6602
6612
6687
6824
6865
6944
6992
6993
7043
7054
7067
7100
7374
7394
7460
7468
7472
7488
7489
7555
7569
7572
7588
7765
7820
7821
7837
7962
7963
7979
7980
7982
8009
8036
8060
8078
8081
8089
8092
8181
8227
8250
8254
8356
8391
8414
8521
8606
8779
8786
8805
8837
8866
8911
8927
8963
8980
8990
9020
9022
9033
9048
9060
9073
9078
9119
9134
9140
9144
9153
9160
9165
9230
9235
9244
9246
9249
9256
9287
9324
9327
9447
9454
9501
10393
10395
10396
10435
10488
10541
10563
10636
10792
10794
10918
10925
11874
11876
28539
28618
28629
28648
28680
29104
29501
[ 653 ]
21
50
176
231
250
497
551
607
644
727
771
801
805
834
861
865
872
930
945
1122
1135
1199
1214
1239
1264
1322
1329
1330
1359
1367
2433
2445
2705
2798
2999
3044
3661
3727
3742
4020
4029
4057
4184
4259
4310
4358
4384
4433
4436
4469
4470
4521
4525
4565
4578
4694
4747
4800
4826
4893
4896
4924
4925
4950
4957
4961
4964
4991
5087
5095
5111
5121
5126
5132
5141
5149
5212
5221
5227
5250
5266
5267
5384
5397
5644
5913
5960
5972
5975
6267
6271
6273
6348
6432
6526
6541
6618
6635
6690
6765
6768
6823
6837
6981
7062
7083
7092
7096
7097
7158
7166
7183
7202
7241
7250
7344
7373
7375
7376
7416
7431
7452
7477
7487
7518
7554
7563
7564
7579
7613
7620
7643
7650
7691
7695
7755
7768
7769
7779
7784
7813
7957
7965
8050
8169
8170
8176
8202
8210
8217
8222
8223
8247
8256
8289
8357
8367
8429
8456
8464
8527
8615
8667
8669
8707
8728
8731
8774
8775
8778
8830
8838
8855
8862
8880
8885
8887
8891
8907
8913
8918
8938
8955
8962
8968
8988
9005
9066
9072
9083
9138
9139
9167
9179
9239
9253
9271
9288
9291
9323
9325
9336
9340
9361
9380
9401
9403
9465
9481
9482
9558
9765
10279
10384
10389
10392
10397
10445
10446
10461
10467
10531
10540
10545
10591
10592
10803
10809
10815
10822
10902
10921
10926
10928
11321
11768
11853
11871
12069
28347
28614
28615
28640
28655
28986
28987
28988
29028
29054
29198
29203
29450
[ 654 ]
15
32
58
112
132
139
233
496
774
818
820
868
916
929
933
934
1063
1134
1187
1231
1237
1267
1356
2436
2965
2998
3003
3046
3621
3692
3695
3740
3887
4362
4370
4395
4477
4502
4505
4571
4677
4711
4773
4809
4810
4812
4890
4900
4923
4951
4954
4972
4989
5011
5032
5062
5075
5076
5112
5147
5156
5216
5291
5311
5319
5725
5726
5746
5793
5861
5888
5908
5996
6084
6159
6260
6277
6335
6340
6343
6375
6376
6395
6434
6454
6462
6469
6523
6546
6549
6562
6573
6580
6583
6584
6632
6648
6653
6686
6700
6734
6742
6744
6745
6748
6756
6769
6816
6836
6853
6854
6857
6873
6898
6915
6937
6940
6956
6962
6969
6980
6989
7025
7026
7135
7141
7153
7170
7184
7185
7203
7209
7384
7393
7403
7407
7469
7476
7486
7495
7525
7541
7551
7561
7655
7658
7670
7678
7692
7701
7710
7711
7728
7746
7751
7775
7964
8024
8098
8099
8112
8166
8252
8258
8361
8369
8469
8553
8638
8639
8642
8654
8670
8672
8678
8692
8695
8710
8718
8727
8776
8859
8877
8879
8921
8947
8965
8993
9038
9086
9087
9171
9172
9181
9189
9212
9269
9270
9272
9284
9308
9311
9328
9330
9338
9346
9356
9411
9423
9430
9495
9499
9509
9546
9547
9615
9635
9762
9770
9911
10203
10274
10282
10289
10290
10294
10305
10358
10365
10382
10387
10415
10449
10463
10482
10515
10529
10534
10546
10551
10555
10561
10568
10585
10600
10615
10624
10813
10904
10906
10953
10956
10958
10973
11017
11059
11081
11154
11158
11316
11377
11694
11852
11880
11923
28611
28631
28654
28664
28990
29001
29029
29031
29051
29055
29123
29593
29605
29775
[ 655 ]
49
51
124
150
163
184
198
225
784
793
902
940
943
1227
1260
1273
1321
1382
2969
2972
3636
4023
4173
4183
4205
4385
4486
4504
4570
4697
4709
4735
4754
4928
4988
5046
5072
5092
5099
5108
5125
5281
5305
5324
5350
5356
5365
5372
5794
5874
5890
5897
5941
6163
6171
6172
6262
6263
6272
6310
6319
6355
6361
6367
6370
6393
6398
6401
6416
6419
6421
6466
6471
6484
6510
6531
6533
6552
6567
6592
6608
6610
6621
6627
6662
6664
6671
6691
6707
6732
6733
6761
6762
6764
6789
6833
6843
6878
6904
6958
6959
7008
7015
7044
7124
7125
7131
7162
7218
7231
7243
7278
7289
7388
7390
7397
7441
7442
7444
7445
7450
7536
7542
7547
7548
7553
7630
7652
7653
7674
7709
7712
7720
7745
8259
8371
8383
8389
8467
8473
8550
8569
8627
8646
8649
8663
8696
8739
8831
8884
9041
9067
9071
9088
9216
9220
9273
9350
9485
9515
9542
9559
9601
9632
9649
9785
9915
9925
10238
10242
10268
10317
10404
10429
10439
10483
10559
10560
10832
10859
10891
10935
10951
10964
10965
11003
11008
11057
11078
11224
11229
11328
11373
11485
11592
11801
11934
12133
12185
12194
12595
12641
16224
27643
28404
28635
28673
28703
28739
28968
28983
29058
29092
29122
29178
29225
29238
29264
29300
29355
29368
29374
29487
29572
[ 656 ]
77
100
168
185
220
228
1068
1222
1275
1371
4177
4201
4483
4484
4492
4551
4569
4681
4714
4716
4738
4776
4778
4805
4875
4946
4948
4955
4958
5014
5020
5753
5878
6293
6294
6301
6312
6317
6425
6473
6491
6516
6558
6571
6572
6666
6698
6705
6730
6811
6838
6845
6886
6920
6929
6935
7165
7392
7398
7435
7448
7449
7481
7501
7507
7512
7530
7539
7626
7627
7668
7727
7738
8542
8548
8565
8694
9221
9436
9514
9551
9552
9594
9622
9670
9679
9780
9801
9817
9818
9830
9841
9886
9913
9920
9930
9990
10006
10141
10143
10171
10173
10174
10267
10343
10378
10409
10410
10558
10587
10594
10852
10856
10857
10869
10876
10889
10900
10903
10979
11002
11010
11024
11049
11053
11102
11123
11128
11151
11164
11242
11244
11248
11446
11465
11481
11494
11575
11636
11664
11666
11690
11731
11732
11834
11919
11960
11962
12128
12473
12597
12605
12608
12611
12628
12659
13682
16128
16195
16244
16262
16308
21692
28298
28397
28537
28602
28683
28694
28698
28790
28882
28885
28890
28965
29100
29125
29172
29177
29222
29271
29486
29488
29589
29774
29786
29929
[ 657 ]
55
56
57
59
94
97
189
212
786
1224
1228
1272
4211
4489
4490
4567
4708
4765
4782
4984
4985
4998
5001
5002
5107
5877
6112
6127
6164
6178
6188
6190
6297
6300
6321
6428
6475
6479
6480
6487
6720
6787
6876
6924
6933
7534
8557
8577
9195
9589
9593
9607
9666
9677
9716
9725
9787
9815
9822
9850
9862
9867
9892
9893
9944
9974
9996
10014
10019
10021
10103
10104
10125
10148
10165
10181
10191
10299
10411
10581
10582
10944
11054
11136
11296
11345
11386
11536
11659
11665
11713
11861
11944
12001
12131
12183
12476
12594
12938
13107
13254
13345
13696
13701
13713
13744
15709
15800
15804
15921
15954
16027
16044
16050
16125
16126
16129
16177
16208
16246
16250
16256
16274
16293
21454
21490
21505
21634
21641
21647
21858
21927
26977
26989
27091
27557
27606
27663
28125
28165
28334
28389
28396
28399
28406
28446
28447
28500
28603
28637
28688
28695
28697
28708
28715
28729
28744
28834
28871
28881
28888
28895
29305
29322
29327
29330
29339
29353
29354
29482
29550
29607
29663
29782
29832
29925
[ 658 ]
95
167
222
1070
1071
1280
1311
5766
5843
6298
6359
6500
6781
6911
7222
9224
9566
9581
9605
9743
9804
9848
9871
9874
9876
10029
10041
10105
10117
10190
10196
11127
11138
11140
11431
11660
11671
11711
12606
12630
12632
12636
12651
12691
13189
13192
13196
13201
13251
13321
13698
14329
14331
15328
15418
15589
15717
15741
15815
15832
15898
15901
15917
15950
15969
15986
16042
16048
16066
16077
16102
16120
16130
16160
16162
16165
16221
16228
16241
16280
16283
16303
16306
17151
17170
17177
17194
17197
17293
17413
17560
21305
21319
21457
21484
21488
21589
21596
21609
21637
21652
21705
21719
21723
21740
21742
21776
21848
21933
21959
21960
21962
22022
22057
22084
27134
27224
27279
27658
27755
28114
28149
28324
28340
28462
28463
28464
28484
28491
28555
28575
28706
28718
28784
28794
28855
28866
28867
28875
28879
28886
28954
28963
29161
29170
29195
29262
29275
29277
29294
29325
29400
29489
29511
29512
29635
29827
29831
29927
29938
29984
[ 659 ]
88
214
1278
1304
1316
4944
5050
6327
6407
6780
7177
8537
9675
9695
9697
9745
9750
9755
9889
10082
10100
10114
10169
11470
11614
11661
11990
11992
12007
12627
12635
12650
12655
12692
12693
12842
12860
12926
12932
12933
13075
13096
13130
13147
13207
13333
13340
13342
13343
13349
13364
13374
13376
13669
13674
13679
13716
13733
13735
13759
13795
13799
13808
13817
13870
14025
14154
14321
14325
14377
14465
14491
15341
15350
15353
15362
15412
15413
15486
15672
15675
15707
15710
15714
15716
15724
15752
15770
15790
15828
15835
15854
15856
15902
15911
15931
15965
15981
15985
16011
16021
16067
16075
16100
16101
16119
16121
16136
16166
16271
16482
16505
16701
16919
16949
17168
17222
17247
17282
17298
17347
17354
17390
17399
17465
17562
17640
18572
18594
18613
18704
21278
21320
21432
21461
21468
21470
21478
21483
21498
21500
21551
21611
21618
21624
21660
21674
21690
21712
21745
21759
21762
21783
21810
21844
21856
21864
21869
21915
21928
21930
22021
22065
22070
22071
22074
22076
27207
27233
27609
27665
27684
27686
27764
27766
27888
28058
28092
28113
28135
28144
28161
28294
28300
28303
28315
28331
28339
28395
28410
28453
28474
28517
28559
28565
28778
28829
28837
28842
28854
28861
28948
28950
28955
28975
29303
29314
29319
29469
29470
29471
29493
29494
29525
29531
29637
29657
29659
29676
29747
29806
29824
29985
[ 660 ]
73
1279
1281
1303
8585
9713
10066
10088
12665
12676
12688
12868
12886
12928
12929
12941
13022
13132
13172
13173
13190
13202
13238
13260
13276
13330
13332
13348
13368
13471
13498
13502
13640
13748
13750
13751
13758
13776
13804
13871
14009
14365
14458
14463
14505
14733
15081
15158
15278
15287
15398
15476
15543
15551
15558
15584
15627
15653
15693
15708
15739
15769
15774
15834
15836
15923
15932
15971
15995
15997
16022
16029
16040
16041
16052
16072
16087
16091
16110
16140
16449
16509
16514
16527
16605
16699
16724
16729
16732
16769
16770
16790
16796
16801
16880
16909
16968
17052
17147
17202
17203
17208
17235
17250
17389
17444
17641
18562
18565
18703
18706
18707
18708
21260
21262
21263
21268
21273
21314
21337
21370
21398
21445
21453
21522
21530
21601
21650
21670
21687
21735
21748
21755
21756
21765
21792
21799
21862
21867
21872
21937
21955
22016
22061
27293
27373
27610
27617
27695
27710
27729
27981
28015
28038
28062
28087
28095
28162
28187
28301
28438
28469
28471
28475
28569
28580
28687
28730
28777
28849
28924
28935
28953
29283
29291
29309
29464
29465
29611
29617
29654
29674
29675
29681
29746
29768
29816
29874
29888
[ 661 ]
75
12703
12705
12707
12711
12813
12840
12861
12903
12931
12948
12964
12989
12990
13003
13004
13034
13152
13187
13212
13245
13274
13378
13382
13383
13392
13458
13470
13637
13757
13765
13796
13797
13814
14357
14382
14388
14409
14415
14498
14522
14531
14548
14651
14795
14906
14909
14921
14949
15077
15102
15120
15121
15137
15153
15236
15237
15239
15240
15244
15266
15267
15269
15275
15345
15402
15440
15470
15499
15607
15628
15670
15698
15712
15748
15750
15838
16007
16058
16097
16099
16108
16625
16627
16668
16720
16723
16728
16730
16762
16793
16798
16818
16820
16825
16828
16861
16884
17057
17063
17313
17371
17381
17573
17588
17592
18677
18691
18696
18716
18755
21267
21276
21318
21336
21343
21408
21414
21415
21423
21439
21497
21665
21729
21798
21800
21802
21822
21832
21837
21842
21852
21879
21889
21907
21919
21968
21973
22008
27397
27472
27520
27548
27682
27712
27732
28017
28045
28060
28100
28109
28115
28487
28571
28578
28926
29648
29653
29685
29752
29757
29912
29915
29955
29972
29973
29976
[ 662 ]
12670
12730
12747
12783
12784
12834
12853
12876
12899
13385
13405
13451
13452
13460
13581
13591
13628
13638
13646
13652
14324
14395
14419
14543
14608
14628
14686
14734
14754
14757
14844
14855
14913
14940
14952
14967
14974
14995
15002
15010
15025
15028
15033
15034
15036
15037
15083
15115
15117
15148
15226
15448
15731
15732
16039
16418
16444
16476
16485
16486
16496
16550
16576
16981
16992
17009
17011
17017
17019
17033
17034
17040
17058
17311
17384
17482
17609
17646
18675
18687
18695
18722
21253
21256
21258
21328
21333
21347
21349
21378
21385
21386
21411
21412
21753
21786
21795
21835
21885
21910
21998
22014
27327
27349
27352
27597
27702
28050
28075
28179
28213
28233
28934
29396
29518
29524
29649
29688
29690
29815
29869
29885
29890
29911
29948
29957
29958
29971
[ 663 ]
12734
12738
12789
12793
12796
12803
12821
12835
12995
12996
13019
13433
13481
13549
13550
13555
13561
13569
13595
13599
13610
13634
13657
14412
14417
14539
14587
14616
14636
14642
14711
14713
14717
14785
14946
14985
15017
15020
15021
15027
15043
15065
15071
15088
15093
15167
15213
15530
15531
16570
17022
17078
17343
17611
21819
28047
28070
28074
28178
28223
28241
29386
29707
29729
29882
29899
29956
[ 664 ]
12761
12764
12790
12795
12810
12831
12999
13475
13522
13586
13588
13597
13624
13629
13630
14524
14611
14693
14784
14799
14816
14822
14835
14877
14941
14956
14965
14966
15012
15018
15127
15132
15160
15163
15165
15171
15178
15183
15189
15204
15405
15527
16997
17322
17324
28206
28210
28236
28264
29710
29713
29847
29851
29866
29897
29900
29949
29959
[ 665 ]
12772
12799
12800
12804
13010
13605
14766
28203
[ 666 ]
13593
13606
15192
[ 672 ]
2776
[ 675 ]
987
2627
3142
[ 676 ]
2830
3144
[ 677 ]
2638
2764
3155
3183
3184
3462
4639
[ 678 ]
617
2191
2231
2604
3088
3106
3112
3113
3134
3137
3141
3187
3285
4349
8303
9109
[ 679 ]
4
357
530
568
641
661
967
1040
1099
1151
2248
2689
2694
2819
3092
3102
3104
3111
3116
3132
3152
3158
3163
3165
4338
7919
10706
10709
10710
[ 680 ]
315
437
440
448
471
1036
1080
1098
2166
2190
2225
2249
2251
2385
2563
2566
2678
2696
2811
2822
2838
2949
2950
3071
3099
3170
3171
3175
3202
3301
3303
3311
3391
3806
3970
4155
4456
4464
4465
4597
5622
5680
7895
7901
8271
8278
8330
8335
9112
[ 681 ]
317
375
414
438
612
632
875
881
979
980
989
996
1033
1047
1048
1078
1100
1777
2253
2265
2278
2752
2815
2955
2977
3080
3244
3377
3390
3406
3446
3849
3894
4332
4591
4601
4669
5185
5187
5402
5520
5524
5608
5620
5653
6977
7806
7883
7951
8017
8042
8129
8398
8501
8762
8763
8765
8769
8810
9011
10669
10732
[ 682 ]
298
331
360
365
370
431
433
444
445
469
511
630
665
737
892
893
899
1024
1027
1028
1053
1057
1089
1129
1178
1246
2324
2476
2800
2809
2932
2933
2937
3063
3226
3238
3335
3416
3500
3530
3531
3906
4137
4330
4592
4593
4603
4605
4611
4672
4757
5240
5277
5583
5657
5731
5920
6228
6255
6997
6998
7087
7406
7764
7807
7842
7908
7990
8019
8070
8486
8749
8768
8811
8846
8953
8960
8977
8983
10663
10701
10703
10724
10735
10755
28660
[ 683 ]
26
30
238
301
303
319
339
340
369
409
428
430
457
517
547
598
705
712
766
770
832
886
887
921
948
1108
1123
1126
1213
1332
2273
2328
2332
2946
2947
2961
3017
3062
3220
3395
3747
3837
4305
4331
4509
4564
4816
4852
4854
4963
4966
5143
5197
5233
5246
5253
5276
5504
5546
5612
5655
5671
5692
5695
5732
5736
5737
6236
6238
6274
6447
6450
6826
6827
6976
7585
7642
7689
7852
7975
7989
8134
8156
8394
8573
8680
8699
8751
8752
8780
8793
8827
8845
8936
8941
9061
9166
9231
9232
9237
9471
9479
10659
10691
10728
10763
10764
10765
28650
[ 684 ]
196
320
548
589
601
711
734
760
842
855
890
1016
1017
1062
1105
1109
1133
1386
1389
2178
2441
2469
2935
2945
2963
2970
3006
3045
3050
3060
3217
3218
3842
4045
4377
4471
4506
4508
4516
4527
4542
4543
4561
4588
4667
4746
4796
4799
5053
5082
5129
5169
5173
5220
5242
5585
5723
5739
5787
5965
6036
6241
6247
6257
6268
6270
6275
6445
6586
6603
6638
6679
6818
6975
7030
7099
7128
7190
7471
7475
7587
7687
7690
7696
7699
7704
7754
7762
7767
7824
7853
7870
7904
7967
7969
7977
8087
8182
8187
8262
8285
8422
8444
8485
8652
8653
8656
8657
8709
8721
8725
8744
8747
8828
8834
8909
8912
8928
8995
9036
9062
9121
9127
9159
9251
9292
9453
9469
9488
10539
10564
10641
10643
10660
10685
10694
10698
10772
10806
10917
10919
10924
11883
11927
28540
28628
28657
28667
[ 685 ]
52
110
111
153
764
798
815
843
869
871
884
952
1249
1325
1339
2435
2980
3008
3009
3043
3047
3058
3231
3651
3652
4225
4264
4276
4368
4374
4545
4560
4573
4577
4665
4749
4755
4797
4798
4817
4874
4894
4921
4971
5060
5064
5066
5120
5127
5138
5222
5225
5228
5247
5294
5374
5400
5452
5895
6232
6251
6266
6363
6374
6455
6460
6468
6519
6589
6614
6620
6678
6741
6814
6817
6960
6990
7063
7094
7134
7138
7212
7260
7415
7432
7438
7455
7464
7465
7479
7482
7520
7582
7676
7773
8025
8054
8063
8085
8101
8195
8212
8218
8221
8224
8368
8458
8461
8567
8630
8635
8651
8711
8719
8730
8742
8892
8901
8902
8915
8920
8958
8994
9035
9057
9129
9143
9164
9177
9260
9299
9476
9503
10454
10459
10524
10598
10678
10797
10909
10920
11929
27641
28647
28656
28677
28999
29599
[ 686 ]
19
22
42
47
53
103
148
149
694
790
816
864
883
906
907
1065
1232
1328
2993
2994
2995
2996
3000
3056
4113
4204
4231
4262
4365
4426
4555
4576
4676
4892
4960
5037
5040
5041
5052
5058
5091
5118
5152
6248
6261
6269
6318
6338
6396
6397
6403
6465
6518
6521
6568
6569
6579
6634
6674
6682
6683
6712
6752
6822
6842
6858
6877
6901
6939
6967
6968
7019
7027
7029
7066
7093
7163
7181
7244
7387
7454
7459
7474
7480
7483
7521
7622
7624
7675
7700
7723
7748
7847
7857
8100
8201
8257
8373
8472
8621
8622
8641
8720
8726
8857
8883
8948
9040
9070
9084
9141
9169
9211
9259
9281
9282
9290
9314
9320
9362
9459
9534
9777
9912
9948
9950
10139
10213
10291
10323
10448
10465
10596
10887
10955
11012
11015
11314
12129
12186
12424
12603
27638
27640
28346
28414
28591
28627
28633
28641
28645
28669
28682
29448
29484
29505
[ 687 ]
104
105
119
121
128
130
147
164
183
773
776
781
821
2990
3001
3051
4176
4478
4493
4682
4729
4733
4774
4780
4883
4959
5012
5038
5051
5057
5067
5068
5106
5707
6012
6196
6278
6281
6315
6346
6354
6356
6364
6387
6390
6442
6486
6551
6557
6560
6594
6598
6600
6623
6642
6656
6672
6692
6708
6759
6788
6831
6953
6955
7011
7012
7159
7422
7443
7457
7462
7485
7510
7532
7617
7739
7743
8524
8611
8619
8640
8645
8691
8867
8878
9055
9184
9187
9279
9434
9484
9486
9550
9827
9951
10364
10403
10466
10548
10556
10839
10868
10871
10897
10938
10939
10942
11018
11041
11113
11184
11285
11320
11330
11572
11691
11760
11854
12044
12195
12610
13714
28405
28607
28636
28844
29018
29119
29185
29268
29272
29483
29592
29776
29784
29833
[ 688 ]
129
141
142
178
1218
1219
1307
4022
4174
4480
4687
4707
4727
4728
4737
4766
4986
5105
5856
5875
5880
6287
6307
6357
6372
6411
6412
6418
6424
6427
6483
6485
6488
6503
6529
6553
6565
6625
6631
6689
6784
6835
6839
6875
6903
6914
7078
7436
7514
7672
7726
8206
8543
8623
8686
8741
9222
9261
9433
9636
9680
9793
9809
9812
9949
9953
10142
10149
10150
10369
10408
10583
10992
10999
11004
11039
11051
11052
11056
11088
11250
11300
11323
11495
11496
11704
11728
12095
12132
12181
12192
12616
12645
13700
13702
16933
21645
21721
27562
27646
28413
28419
28450
28499
28969
29137
29175
29221
29243
29269
29302
29499
29529
29541
29580
[ 689 ]
91
217
783
1216
4701
4736
4772
4917
5834
6177
6198
6213
6216
6290
6330
6380
6381
6423
6476
6477
6489
6493
6494
6497
6785
6844
9588
9814
9842
9844
9849
9864
9869
9880
9895
9899
9900
9928
10147
10192
10298
10851
10875
10968
10988
11256
11492
11499
11501
11608
11726
11940
11957
12126
12589
12609
12624
12644
12646
12936
13148
13695
13705
13706
15799
16093
16175
16202
16292
17558
21375
21685
21715
21961
27184
27661
28311
28393
28412
28716
28884
29127
29157
29159
29241
29543
29935
[ 690 ]
92
216
1308
1319
4724
4783
6210
6305
6478
6498
6499
7281
8556
9831
9888
9890
10000
10018
10106
10120
10124
11797
12014
12471
12626
12634
12638
12643
12648
12654
12689
13681
13688
13749
13767
13783
14026
14330
14443
15347
15354
15713
15765
15792
15915
16024
16045
16068
16138
16151
16164
21269
21306
21479
21561
21617
21620
21656
21752
21777
21850
21925
21931
21932
21957
27654
27664
27787
28148
28323
28568
28745
28974
29274
29293
29318
29457
29530
29823
29836
29987
[ 691 ]
76
86
6302
9714
9877
10052
10112
12652
12873
12939
13224
13377
13641
13683
13685
13691
13722
13754
13761
13794
13869
13893
14323
14427
14744
15352
15361
15363
15409
15557
15753
15760
15844
15850
15851
15891
15996
16051
16056
16094
16132
16152
16174
16294
16471
16698
16974
17183
17196
17201
17213
17301
17387
17625
18607
18608
18625
21304
21374
21383
21489
21501
21502
21581
21629
21653
21667
21720
21733
21739
21779
21853
21963
22048
22060
22072
22077
27662
27668
27688
27697
28063
28186
28230
28306
28330
28442
28495
28545
28584
28862
28874
29149
29320
29352
29356
29357
29618
29724
29743
29787
29838
29877
[ 692 ]
1305
10101
12576
12681
12682
12731
12846
12863
12872
12892
12942
13041
13213
13308
13322
13375
13500
13673
13730
13774
13802
13816
13848
14332
14353
14359
14387
14430
14466
14496
14917
15104
15108
15230
15273
15274
15355
15358
15541
15548
15552
15568
15657
15692
15702
15743
15972
15973
15974
15988
16016
16065
16078
16082
16109
16480
16704
17027
17273
18568
18688
21274
21380
21396
21409
21458
21590
21646
21697
21727
21751
21807
21880
21953
21972
22032
22055
27530
28012
28057
28098
28441
28570
28908
29634
29655
29693
29726
29748
29790
29872
29889
29914
[ 693 ]
85
10070
12704
12709
12887
12913
12918
13014
13037
13073
13140
13218
13514
13551
13560
13639
13723
13772
13777
13800
13810
13861
14351
14420
14452
14511
14601
14659
14743
14774
14845
15150
15151
15235
15238
15242
15259
15272
15408
15468
15472
15565
15578
15659
15696
15767
15990
16488
16495
16706
16799
16862
17047
17077
17206
17212
17220
17340
17385
21240
21300
21329
21402
21403
21426
21797
21804
21863
21874
21875
21892
21964
21982
21991
22056
27341
27380
27704
28032
28052
28138
28139
28218
28293
28947
29625
29750
29762
29766
29861
29904
29905
29983
[ 694 ]
12719
12725
12729
12756
12776
12807
12883
12891
12894
12914
12945
13005
13059
13394
13554
13596
13626
13642
13647
13651
13815
14356
14381
14413
14414
14416
14423
14547
14600
14626
14627
14640
14652
14657
14672
14862
14916
14922
14933
14934
14939
14976
14998
15030
15040
15079
15080
15128
15130
15149
15197
15220
15249
15348
15406
16414
16481
16493
16727
17013
17396
17645
18676
21322
21391
21750
21793
21817
21891
21934
27339
27401
28048
28182
28184
28274
29382
29626
29644
29717
29727
29820
29848
29881
29896
29906
29979
[ 695 ]
12739
12768
12781
12832
12878
13012
13057
13432
13521
13553
13658
14405
14418
14618
14622
14637
14771
14802
14840
14869
14968
15129
15156
15169
15207
15449
15634
15666
16568
17317
21399
21430
28083
28177
28270
28282
29641
29650
29689
29708
29860
29864
29884
29903
29953
29968
[ 696 ]
12724
12778
12792
12794
12814
12823
12825
12836
12954
12997
13398
13589
14850
15126
15135
15210
15222
28214
28222
29961
29963
[ 697 ]
12765
12802
13585
14803
28216
28267
29712
29950
[ 698 ]
29702
[ 705 ]
2775
[ 707 ]
986
2829
[ 708 ]
3145
3162
4634
[ 709 ]
2641
2691
2828
3131
3185
[ 710 ]
353
2601
2765
3087
3143
3150
3154
[ 711 ]
489
531
566
976
981
1025
1041
2186
2683
2684
2810
2832
2913
3086
3108
3114
4346
8322
9108
[ 712 ]
395
396
439
595
1086
1115
2187
2192
2202
2497
2511
2814
2835
3091
3110
3148
3149
3151
3475
4348
5190
5593
7953
8273
9242
[ 713 ]
325
374
405
455
562
758
1029
1049
1079
1092
1096
2174
2250
2679
2816
2817
2906
2918
2928
2953
3074
3093
3094
3097
3199
3228
3302
3423
4589
4602
5596
5694
5720
7952
8701
8770
8799
9117
10687
[ 714 ]
372
418
434
441
570
571
591
683
685
701
849
888
1085
1104
1116
1255
2193
2388
2790
2791
2903
2924
2930
2941
2952
3096
3665
4300
4320
4668
5179
5188
5245
5672
5717
6229
7192
7763
7909
7944
8331
8344
8439
8442
8503
8659
8761
8771
8781
8812
8813
8814
9125
10653
10672
10768
[ 715 ]
275
300
516
573
726
833
835
877
878
951
1019
1023
1061
1075
1111
1209
1387
2181
2923
2943
2957
2958
2973
2979
2989
3038
3042
3496
4323
4540
4541
4607
4818
5096
5164
5241
5651
5668
5685
5688
5690
5697
6246
6457
6537
6996
7362
7371
7377
7378
7570
7639
7839
7841
7937
7976
8186
8735
8748
8755
8759
8773
8821
8825
8893
8943
8981
8999
9122
9128
9154
9370
10699
10773
[ 716 ]
44
296
366
368
407
698
700
741
761
762
769
800
839
844
856
876
909
1020
1131
1188
1331
2179
2968
3007
3013
3037
3054
3324
3593
3782
3841
4163
4303
4526
4760
4822
5063
5098
5116
5158
5170
5217
5243
5677
5696
5740
6088
6258
6362
6444
6459
6615
7018
7033
7085
7095
7137
7189
7193
7379
7466
7693
7794
7836
7974
7978
7981
8005
8013
8084
8090
8114
8183
8425
8455
8704
8724
8732
8733
8737
8745
8849
8886
8934
8945
8951
8961
8964
9029
9123
9142
9173
9175
9243
9321
9478
10444
10452
10805
10915
12419
28644
[ 717 ]
180
232
695
797
857
1012
1067
1324
2434
2971
2986
3004
3011
3961
4056
4293
4562
4563
4710
4863
4869
4993
5056
5065
5100
5148
5686
5699
5703
6243
6347
6435
6436
6524
6550
6555
6601
6613
6622
6675
6767
6828
6943
7017
7023
7035
7114
7266
7366
7458
7478
7513
7543
7619
7752
8151
8572
8628
8664
8674
8698
8717
8847
8876
8890
8900
8916
8917
8959
8991
9056
9137
9250
9428
9475
10460
10527
10586
[ 718 ]
133
146
226
321
2967
2988
2991
4229
4758
4931
5035
5044
5047
5229
5670
5789
5865
5892
6250
6283
6334
6337
6339
6342
6373
6388
6394
6461
6520
6607
6703
6834
6884
6947
6948
7353
7516
7517
7623
7740
7749
7859
7966
8052
8531
8566
8714
8888
8914
8939
9054
9147
9168
9170
9178
9227
9228
9349
10379
10468
10509
10590
10611
10808
10861
28632
28634
28672
[ 719 ]
106
116
143
777
778
792
817
1223
4420
4745
4767
4769
4770
5154
6197
6289
6292
6308
6352
6368
6391
6400
6404
6437
6470
6506
6599
6650
6658
6757
6812
6941
7383
7389
7526
7531
7654
7725
8209
8349
8365
8465
8529
9262
9493
9564
9625
9987
10012
10146
10227
10303
10464
10470
10936
10978
11001
11014
11071
11245
11346
11384
11716
12596
12614
29180
29783
29785
[ 720 ]
79
137
2966
4807
5709
5711
6184
6296
6316
6320
6333
6345
6379
6417
6509
6511
6517
6643
6715
6786
6934
6964
7004
7179
7503
7527
7714
7741
9642
9884
10952
10967
10996
11019
11073
11124
11132
11241
11751
11887
11955
12135
12591
12617
27220
28449
28699
28723
28880
28883
28984
29220
29298
29931
[ 721 ]
81
1225
4719
4726
6175
6295
6324
6406
6409
6413
6429
6430
6490
6495
6508
6515
6530
6668
7178
7219
7232
9549
9847
9858
9868
9872
9875
9896
10015
10093
11246
11507
12472
12475
12590
12937
14003
15912
16046
16071
16176
16307
21588
21622
28130
28400
28402
28417
28444
29153
29219
29480
29834
29930
[ 722 ]
1309
4777
5104
5109
5879
6167
6378
6382
9693
9870
10113
10128
11511
12577
12587
12649
12869
13338
13344
13711
14017
15308
15582
15813
15857
15904
15951
16159
21621
21623
21657
21734
21971
27288
27657
28316
28333
28387
28401
28418
28437
29323
29924
[ 723 ]
87
98
6328
11515
12677
12679
12870
13769
13775
13793
13818
14428
15722
15853
16020
16063
16104
16106
16526
17025
21371
21658
21725
21763
21855
27523
27667
28054
28122
28321
28710
29619
29623
29636
29749
29765
29809
[ 724 ]
4723
12678
12683
12732
12733
12867
12963
13468
13721
13728
13752
13806
13891
14364
15234
15241
15542
15762
15960
16057
16484
16725
17379
17398
17420
21404
21917
22015
28055
28292
28946
28952
29317
29468
29622
29822
29863
29886
29891
29945
[ 725 ]
1283
12671
12726
12817
12875
13517
13726
13768
13770
14354
15245
15564
16494
16521
16719
17035
17223
21275
21393
21413
21427
21701
21744
21749
27468
27703
28219
29630
29639
29682
29683
29715
29821
29825
29894
29960
29980
[ 726 ]
10053
12674
12716
12720
12735
12819
12839
12848
12851
12885
13380
13396
13635
13645
14624
14938
14964
15000
16718
18690
21422
27436
28076
28180
28191
28196
28468
29880
29954
[ 727 ]
12806
12833
12841
13519
13575
13598
13607
14599
28193
29951
29962
29970
[ 728 ]
12745
12746
12809
12824
13602
13603
14765
15069
28078
28280
[ 729 ]
12801
14540
29709
29964
[ 740 ]
565
2602
[ 741 ]
3139
3161
3463
[ 743 ]
465
2199
2201
2564
2692
2695
3083
3105
10708
[ 744 ]
454
1044
1050
1114
2194
2229
2954
3084
3101
3147
4040
5718
7896
7941
9241
[ 745 ]
155
404
406
518
894
1042
1056
1110
2290
2927
2929
3724
4042
4324
4748
5184
5661
5665
5673
5679
5683
6221
7930
9118
[ 746 ]
43
313
435
456
470
704
710
879
1077
1349
2921
2925
2931
2942
2976
3034
3039
4321
5259
5689
5716
5722
6256
6452
8502
8736
8754
8758
8760
8788
9008
[ 747 ]
230
252
343
702
718
765
836
897
1022
1348
2177
2959
2960
2982
3005
3041
3718
4759
4846
4932
5150
5230
5257
5676
7075
7855
7868
8441
8712
8818
8979
12420
[ 748 ]
699
708
763
841
850
852
900
2707
3012
3229
4546
5261
5675
6538
6587
6588
6867
7021
7456
8426
8629
8665
8723
8740
9149
9229
10692
10799
29444
[ 749 ]
706
2985
5045
5054
5059
5687
5705
5747
6446
6548
6639
6754
7024
7061
7453
7463
7567
7686
7750
7753
7851
8355
8421
9031
12418
28643
[ 750 ]
127
151
772
1327
2992
3040
5061
5706
6264
6336
6341
6504
6505
6525
6661
6957
7072
7115
7242
7247
7380
7381
7621
7776
8530
8549
8568
8625
9298
9427
9543
10486
10977
12190
[ 751 ]
109
201
775
780
5702
5712
6217
6249
6313
6365
6440
6464
6496
6527
6561
6597
6900
7175
7423
7550
7724
8570
10140
10159
10552
10593
10892
28639
28722
[ 752 ]
82
144
4718
4768
5000
5049
6173
6288
6311
6314
6323
6350
6405
6556
6593
7164
7230
9668
9853
9887
10094
10132
10222
11000
12592
[ 753 ]
93
1277
4725
4997
6291
6322
6325
6420
6512
6514
9852
9861
12467
12653
13773
16879
28428
[ 754 ]
78
4720
9865
10097
12593
12607
12625
12690
14027
15982
16025
21503
21694
21722
21726
28328
29665
[ 755 ]
96
9674
12468
16524
16578
16736
21324
21607
21717
21941
22017
28329
29895
[ 756 ]
12702
12736
12866
13671
14355
16141
21384
21659
21661
21806
21841
22075
28085
28231
29467
29640
29977
[ 757 ]
13457
13558
13636
13809
21906
28185
28848
29621
[ 758 ]
12673
12710
12808
12815
12912
13400
13566
14619
15125
29947
[ 759 ]
14545
15031
27321
29846
[ 760 ]
12722
[ 761 ]
13604
14874
29711
[ 773 ]
988
2831
[ 775 ]
2834
3153
[ 776 ]
1043
2680
3098
3100
5682
5721
7894
8756
[ 777 ]
408
515
1026
2919
3021
8800
9113
10671
10705
[ 778 ]
468
1054
2813
2926
2956
5130
5258
5663
5664
5674
5715
8757
10673
[ 779 ]
2934
2978
3026
3172
4821
5171
5684
5714
5729
6448
7874
9156
9234
29053
[ 780 ]
889
896
5713
6231
6449
6606
6677
6681
6820
[ 781 ]
41
4936
5036
5238
6259
6415
6443
6453
6456
6829
6961
8716
8722
[ 782 ]
791
5055
6942
7382
7470
7524
8713
[ 783 ]
102
6309
6331
6431
6649
6673
6965
11371
12600
[ 784 ]
136
138
6501
10138
10993
[ 785 ]
223
6286
6326
12417
12602
28749
[ 786 ]
83
6304
6408
9883
10102
12601
16037
21456
21608
27563
[ 788 ]
12675
17608
21405
29633
[ 789 ]
28183
[ 790 ]
29646
[ 791 ]
12721
13625
[ 806 ]
2836
[ 807 ]
2833
[ 808 ]
380
1039
1101
[ 809 ]
3227
5662
[ 810 ]
5698
[ 811 ]
154
2964
7983
9236
[ 812 ]
46
2962
2984
5704
6637
9238
[ 813 ]
1074
2987
6276
[ 815 ]
6366
6528
12191
[ 816 ]
145
6371
6513
[ 817 ]
115
11383
12598
[ 818 ]
1310
21615
[ 819 ]
15933
[ 822 ]
12845
[ 840 ]
1055
[ 842 ]
5719
[ 846 ]
6392
10905
[ 847 ]
101
[ 848 ]
6502
[ 850 ]
84
[ 851 ]
6507
29632
[ 853 ]
29624
[ 873 ]
519
[ 876 ]
12422
[ 877 ]
108
[ 888 ]
29627
[ 972 ]
12421
[ 1006 ]
12423
