[ 4 ]
8866
8868
[ 5 ]
8870
8871
8878
8901
8904
[ 6 ]
8869
8877
8880
8905
8907
8912
8945
[ 7 ]
8885
8906
8909
8920
[ 8 ]
8899
[ 15 ]
61688
61743
[ 17 ]
61668
61672
61676
61677
61697
61724
[ 18 ]
61667
61727
[ 19 ]
61726
[ 35 ]
8865
8948
[ 36 ]
8873
8883
8894
8902
8947
8949
[ 37 ]
8872
8882
8884
8895
8903
8937
8943
8946
[ 38 ]
8867
8874
8875
8876
8879
8881
8888
8889
8890
8891
8892
8893
8897
8908
8911
8913
8916
8917
8919
8927
8930
8935
[ 39 ]
8887
8896
8910
8914
8921
8922
8926
8929
8931
8938
8944
[ 40 ]
8886
8898
8900
8915
8924
8925
8933
8934
[ 41 ]
8923
[ 45 ]
61707
61742
[ 46 ]
61708
61737
61809
61814
[ 47 ]
61456
61509
61516
61540
61629
61634
61635
61650
61661
61685
61693
61694
61706
61730
61735
61738
61739
61741
61748
61751
[ 48 ]
61501
61539
61618
61641
61647
61670
61680
61686
61691
61692
61695
61700
61702
61703
61704
61705
61728
61736
61744
61747
61749
61752
61753
61815
61820
[ 49 ]
61519
61520
61537
61568
61573
61585
61586
61605
61627
61644
61645
61660
61663
61664
61665
61666
61669
61671
61673
61675
61678
61679
61683
61687
61689
61690
61696
61698
61701
61717
61723
61729
61745
61746
[ 50 ]
61522
61545
61565
61583
61599
61640
61662
61684
[ 51 ]
61533
61593
61602
61681
61699
[ 53 ]
53302
[ 54 ]
61531
[ 68 ]
8864
8950
8952
[ 69 ]
8863
8936
8939
8955
8961
[ 70 ]
8951
8953
[ 71 ]
8918
8942
8959
51293
[ 72 ]
8928
8932
51297
51299
[ 73 ]
8404
8409
8411
51279
51290
51292
[ 74 ]
51276
51304
51310
[ 75 ]
8408
20153
51272
51306
[ 76 ]
51258
51265
51305
51609
51636
51672
51732
61360
[ 77 ]
50916
51029
51066
51380
51382
51394
51454
51551
56148
59902
61244
61246
61318
61336
61376
61380
61391
61404
61421
61426
61431
61434
61435
61437
61443
61446
61452
61784
61810
61811
61812
63760
63764
68642
[ 78 ]
50230
50922
50972
50973
51220
51384
51391
51392
51396
51552
51555
51596
51749
55909
55985
56083
56086
56131
56150
58827
58883
58999
59000
59036
59038
59164
59297
59739
60002
60058
60258
60259
60950
61070
61081
61096
61185
61245
61251
61253
61258
61263
61312
61317
61338
61361
61372
61375
61382
61384
61389
61394
61399
61400
61402
61403
61408
61423
61429
61433
61444
61445
61447
61449
61450
61453
61498
61615
61624
61638
61711
61712
61713
61714
61716
61740
61766
61777
61780
61781
61790
61791
61792
61793
61795
61808
61813
61927
61928
62015
62068
62073
62077
62972
63020
63579
63580
63581
63759
63766
63837
63838
63994
64087
64348
64681
65469
65470
65471
65477
66376
66464
[ 79 ]
50029
50380
50926
51036
51166
51198
51316
51438
51455
51518
51539
51611
55506
55650
55660
55983
55984
55989
56024
56030
56078
56079
56087
56090
56125
56129
56130
56133
58087
58816
59020
59073
59106
59210
59299
59782
59825
59883
59964
59965
59992
59998
60008
60009
60027
60088
60096
60097
60273
60276
60278
60289
60376
60401
60512
60813
60921
60924
60931
61108
61138
61140
61141
61160
61197
61231
61252
61285
61307
61308
61315
61319
61320
61333
61342
61362
61363
61369
61371
61374
61385
61387
61395
61396
61397
61401
61425
61427
61428
61432
61451
61458
61460
61462
61495
61500
61504
61505
61506
61507
61508
61510
61514
61518
61609
61612
61619
61621
61622
61623
61631
61636
61649
61651
61657
61709
61719
61722
61734
61750
61755
61757
61769
61778
61779
61782
61796
61797
61807
61817
61818
61819
61846
61978
62012
62014
62020
62022
62043
62057
62075
62148
62699
62854
62873
62949
62957
62979
62985
62987
63006
63023
63024
63034
63054
63074
63089
63133
63169
63266
63278
63370
63404
63506
63519
63523
63530
63536
63577
63597
63599
63605
63681
63705
63709
63763
63765
63782
63804
63805
63827
63831
63835
63842
63846
63851
63855
63856
63862
63880
63888
63980
64690
64901
64905
64929
64930
65314
65481
65600
65605
66252
66380
66381
66383
66428
66435
66457
66458
66472
66518
66525
66530
66537
66781
66786
66789
66790
66793
66799
66870
66903
66911
68984
69014
69038
69466
69529
[ 80 ]
39330
39339
39363
50352
50381
50391
50407
50723
50726
50729
50953
51146
51409
51471
51517
51971
55290
55307
55342
55343
55356
55373
55374
55391
55396
55515
55516
55518
55663
55687
55908
56013
56036
56046
56076
56077
56105
56149
56152
56153
58078
58628
58809
58829
58902
58962
59052
59053
59060
59075
59148
59215
59216
59224
59319
59342
59355
59872
59966
60001
60021
60026
60063
60095
60117
60148
60183
60268
60269
60275
60277
60291
60352
60389
60403
60409
60519
60801
60860
60861
60867
60868
60877
60901
60904
60928
60929
60949
61078
61100
61107
61114
61127
61145
61152
61158
61166
61167
61175
61186
61188
61215
61248
61301
61304
61314
61316
61321
61324
61329
61343
61366
61367
61370
61398
61454
61455
61459
61461
61463
61465
61474
61476
61478
61496
61499
61503
61512
61513
61515
61517
61521
61546
61547
61548
61550
61552
61553
61554
61561
61562
61574
61607
61608
61610
61611
61613
61614
61616
61617
61620
61625
61626
61630
61632
61637
61639
61642
61648
61652
61682
61731
61756
61771
61772
61794
61822
61823
61824
61829
61830
61831
61832
61833
61841
61850
61854
61923
61930
61931
61941
61956
62000
62013
62016
62027
62032
62036
62042
62046
62053
62056
62058
62059
62080
62105
62122
62128
62150
62291
62383
62384
62391
62468
62626
62754
62781
62782
62801
62828
62830
62844
62851
62898
62900
62910
62911
62919
62943
62954
62973
62974
63002
63008
63014
63031
63058
63061
63064
63070
63073
63076
63087
63090
63098
63123
63125
63195
63256
63273
63275
63317
63327
63328
63329
63330
63339
63363
63375
63381
63411
63432
63486
63516
63517
63526
63527
63575
63585
63586
63695
63736
63755
63762
63769
63770
63772
63783
63786
63806
63830
63832
63833
63840
63841
63848
63877
63886
63897
63921
63928
63929
63934
63936
63981
63982
63983
64055
64058
64132
64146
64150
64164
64173
64215
64239
64409
64411
64427
64662
64676
64687
64688
64699
64704
64713
64813
64823
64832
64838
64862
64885
64900
64924
64926
64927
64937
64950
64951
64992
65139
65175
65176
65321
65324
65473
65479
65487
65504
65506
65529
65603
65604
65609
65633
65647
65650
65653
65875
65879
65933
66110
66172
66236
66254
66282
66289
66298
66301
66314
66353
66372
66384
66417
66434
66437
66438
66544
66576
66594
66598
66608
66611
66653
66654
66662
66689
66709
66713
66717
66732
66748
66766
66768
66774
66780
66828
66832
66838
66869
66902
66929
66941
66980
67102
67814
68111
68159
68194
68247
68447
68450
68478
68539
68541
68618
68621
68622
68627
68655
68657
68859
68919
69015
69143
69152
69223
69316
69352
69364
69365
69370
69371
69485
69532
69538
69546
69548
69550
69554
69564
69656
69660
69891
69893
69977
69987
[ 81 ]
39341
39342
47016
47494
50046
50069
50073
50096
50254
50345
50384
50478
50747
50749
50751
50758
50761
50769
50957
50963
51062
51116
51145
51413
51425
51439
51449
51458
51464
51522
51534
51576
51613
51801
51895
51900
51902
51925
51967
51969
52016
54806
55283
55299
55322
55340
55362
55366
55392
55442
55453
55454
55483
55563
55656
55682
55684
55691
55911
55912
55913
55922
55923
55994
56080
56140
56155
56249
56774
56858
56860
58016
58039
58040
58052
58057
58657
58730
58901
59046
59054
59068
59198
59288
59289
59302
59383
59401
59404
59424
59695
59697
59914
59934
59937
59980
60013
60014
60109
60111
60185
60187
60198
60238
60267
60294
60358
60395
60423
60464
60521
60802
60812
60814
60826
60863
60864
60865
60875
60881
60930
60933
61069
61074
61189
61281
61282
61284
61328
61467
61472
61497
61511
61525
61526
61544
61549
61556
61560
61564
61567
61569
61570
61571
61572
61575
61577
61578
61579
61580
61581
61595
61598
61606
61628
61633
61643
61655
61718
61720
61725
61732
61733
61754
61775
61816
61821
61827
61828
61840
61843
61844
61851
61852
61859
61878
61879
61922
61924
61932
61934
61936
61952
61955
61989
61993
62023
62029
62031
62035
62044
62045
62168
62170
62182
62238
62305
62307
62308
62332
62337
62350
62382
62387
62392
62394
62408
62416
62454
62701
62763
62770
62786
62788
62795
62797
62805
62821
62861
62865
62944
63007
63030
63044
63100
63155
63161
63207
63341
63401
63521
63551
63556
63626
63663
63670
63689
63812
63865
63868
63870
63872
63891
63895
63896
63917
63923
63924
63933
63935
63937
63940
63948
63970
64043
64052
64091
64116
64175
64195
64255
64257
64279
64304
64314
64328
64339
64407
64424
64433
64443
64455
64459
64472
64482
64580
64657
64665
64674
64692
64697
64698
64758
64759
64783
64870
64875
64894
64899
64909
64912
64934
64938
64972
64975
64977
64978
64993
64994
64995
65012
65018
65019
65020
65021
65023
65027
65029
65030
65031
65048
65057
65067
65107
65121
65129
65134
65166
65177
65218
65283
65285
65305
65318
65320
65360
65408
65410
65411
65437
65445
65447
65448
65455
65480
65482
65513
65587
65589
65591
65594
65598
65602
65610
65618
65620
65626
65628
65642
65644
65666
65667
65668
65669
65670
65671
65675
65683
65737
65752
65809
65827
65871
65877
65881
65907
65908
65909
65918
65921
65931
65972
65984
65996
65997
66030
66032
66138
66141
66150
66154
66155
66157
66193
66217
66234
66305
66310
66311
66324
66327
66492
66609
66655
66683
66708
66714
66716
66718
66770
66771
66833
66862
66865
66866
66871
66878
66889
66895
66909
66913
66914
66936
66940
66945
66953
66960
66965
66979
66999
67035
67118
67210
67221
67228
67229
67239
67240
67249
67252
67315
67316
67332
67364
67384
67385
67386
67396
67405
67409
67589
67591
67649
67650
67656
67662
67692
67719
67779
67810
67825
67851
67858
67874
67898
67946
67950
67955
67963
68110
68132
68158
68190
68198
68249
68252
68253
68261
68440
68492
68504
68509
68534
68536
68538
68540
68625
68626
68639
68684
68688
68701
68741
68752
68753
68754
68849
68860
68871
68878
68926
69008
69034
69035
69046
69071
69076
69081
69082
69112
69139
69268
69279
69282
69289
69307
69314
69323
69339
69344
69345
69347
69348
69351
69358
69366
69369
69373
69375
69376
69377
69394
69400
69412
69456
69462
69464
69467
69474
69476
69479
69480
69487
69522
69524
69526
69527
69536
69547
69572
69650
69652
69657
69659
69661
69663
69671
69722
69785
69872
69881
69884
69956
69972
69980
69985
[ 82 ]
39368
39369
50180
50227
50360
50372
50374
50382
50402
50673
50746
50756
50759
50851
50937
51054
51245
51400
51408
51420
51431
51445
51533
51535
51537
51845
51860
51914
51923
51963
52017
53160
54807
54808
54810
54819
54822
54959
55280
55318
55352
55363
55393
55416
55427
55456
55462
55482
55485
55489
55494
55498
55557
55581
55688
55702
55914
55925
55927
55937
55940
55945
55965
55970
56050
56160
56191
56193
56246
56250
56258
56275
56779
56859
56883
56946
57000
57905
58051
58090
58286
58293
58713
59132
59178
59179
59220
59387
59410
59426
59512
59694
59713
59714
59716
60011
60212
60237
60240
60251
60317
60325
60356
60367
60392
60396
60459
60470
60850
60866
60876
60878
60957
60967
60970
60972
60974
61075
61276
61289
61306
61486
61502
61523
61524
61534
61536
61542
61543
61557
61558
61559
61563
61566
61576
61584
61588
61590
61600
61604
61646
61653
61654
61656
61674
61776
61825
61826
61838
61839
61842
61845
61873
61874
61877
62026
62134
62160
62190
62223
62227
62236
62243
62251
62272
62273
62275
62288
62294
62301
62315
62329
62344
62345
62346
62404
62426
62445
62450
62619
62678
62702
62742
62833
62836
62848
63048
63554
63677
63869
63904
63907
63919
63939
63941
63958
64013
64016
64054
64062
64068
64090
64093
64172
64182
64184
64186
64197
64204
64221
64227
64252
64254
64256
64270
64289
64294
64303
64453
64458
64461
64480
64488
64498
64501
64541
64543
64558
64559
64578
64588
64597
64630
64639
64670
64671
64672
64756
64864
64877
64886
64888
64954
64957
64968
64999
65007
65008
65016
65017
65032
65045
65047
65053
65068
65069
65071
65088
65093
65156
65160
65203
65204
65210
65243
65250
65291
65297
65298
65338
65352
65402
65407
65409
65419
65425
65427
65428
65429
65439
65449
65456
65510
65512
65517
65574
65580
65586
65588
65614
65616
65619
65643
65654
65663
65676
65735
65736
65750
65766
65796
65800
65826
65846
65847
65904
65906
65911
65913
65928
65932
65940
65956
66004
66019
66026
66028
66029
66055
66092
66116
66140
66144
66175
66176
66203
66214
66238
66239
66308
66618
66796
66847
66888
66894
66949
66955
66956
66975
66977
66978
66985
66987
66988
67029
67034
67042
67058
67062
67110
67119
67122
67126
67208
67209
67211
67214
67232
67234
67270
67298
67300
67312
67333
67342
67345
67380
67381
67382
67387
67388
67391
67393
67410
67412
67427
67429
67484
67494
67508
67514
67515
67543
67544
67583
67594
67598
67603
67608
67646
67653
67655
67663
67675
67680
67682
67725
67733
67737
67739
67758
67775
67778
67783
67785
67788
67828
67840
67850
67870
67884
67895
67920
67924
67927
67932
67957
67965
68021
68115
68124
68127
68150
68156
68178
68191
68196
68197
68204
68206
68213
68225
68248
68299
68303
68312
68313
68319
68322
68324
68337
68339
68355
68372
68401
68423
68498
68501
68528
68548
68573
68600
68601
68719
68727
68738
68757
68825
68847
68867
68874
68942
68974
69090
69094
69125
69137
69141
69142
69146
69147
69164
69165
69166
69175
69178
69181
69184
69232
69259
69264
69265
69293
69294
69298
69299
69309
69312
69317
69325
69326
69334
69346
69361
69367
69385
69386
69392
69404
69409
69452
69454
69455
69482
69520
69525
69544
69571
69588
69589
69639
69640
69649
69655
69664
69707
69734
69831
69832
69839
69848
69853
69873
69877
69885
69900
69957
69963
69964
69971
69978
69988
69990
[ 83 ]
39360
47048
47281
47287
47417
47471
47487
50064
50161
50364
50387
50647
50689
50725
50770
50834
51057
51119
51428
51429
51432
51543
51573
51592
51918
51982
53233
53243
53311
53315
53349
53351
53353
53366
53367
53373
53392
54304
54490
54797
54811
54813
54890
54899
55013
55051
55077
55110
55117
55231
55242
55247
55249
55365
55420
55472
55475
55478
55568
55569
55597
55674
55711
55727
55800
55886
55921
55935
55957
55960
56177
56178
56192
56195
56203
56207
56261
56262
56267
56268
56277
56329
56331
56332
56775
56855
56856
56943
57004
57290
57563
57663
57904
58015
58034
58043
58085
58132
58268
58285
58290
58329
58648
58662
58810
58879
58935
58992
59437
59459
59503
59509
59514
59518
59544
59547
59596
59683
59915
59917
60204
60222
60224
60239
60299
60416
60418
60463
60466
60598
60605
60738
60793
60810
60816
60817
60825
60871
60953
60966
60971
60973
60996
60999
61053
61061
61062
61274
61275
61278
61279
61293
61488
61527
61530
61532
61538
61541
61555
61582
61587
61589
61594
61596
61597
61601
61603
61758
61960
62187
62192
62202
62215
62254
62292
62328
62461
62483
64029
64101
64103
64111
64165
64179
64180
64190
64209
64237
64253
64259
64273
64276
64475
64542
64560
64596
64622
64627
64629
64649
64666
64755
64884
64887
65084
65087
65158
65186
65196
65205
65206
65249
65254
65260
65265
65287
65292
65370
65375
65382
65384
65412
65426
65539
65553
65712
65721
65724
65733
65747
65757
65770
65772
65773
65775
65780
65788
65797
65799
65802
65825
65888
65959
65978
66044
66093
66094
66121
66309
66834
66938
67001
67089
67104
67105
67108
67127
67142
67169
67215
67216
67224
67225
67258
67263
67271
67289
67299
67340
67363
67376
67408
67457
67485
67487
67491
67497
67612
67672
67730
67764
67769
67784
67873
67882
67885
67990
67993
67996
67998
68023
68038
68052
68093
68170
68176
68182
68185
68189
68227
68231
68232
68234
68293
68294
68305
68314
68371
68373
68520
68553
68558
68562
68575
68576
68577
68578
68590
68675
68717
68718
68733
68760
68782
68829
68835
68883
68886
68936
68938
68948
69060
69121
69124
69168
69183
69188
69190
69262
69283
69426
69460
69461
69463
69497
69498
69515
69577
69654
69667
69806
69808
69809
69819
69822
69855
69856
69865
69867
69928
69936
[ 84 ]
47285
47286
47470
50037
50063
50114
50169
50249
50354
50479
50648
50816
50831
50871
50880
51053
51055
51060
51127
51399
51430
51906
51907
51913
51965
51966
51991
51999
52005
52030
52083
52104
53087
53219
53236
53237
53242
53261
53287
53290
53317
53318
53338
53341
53354
53355
53356
53362
53364
53368
53374
53376
53379
53382
53391
53440
54093
54106
54121
54144
54166
54503
54659
54680
54821
54898
54961
54993
55017
55065
55068
55076
55089
55095
55114
55245
55460
55469
55471
55541
55701
55931
55950
55954
55956
56204
56208
56220
56234
56313
56325
56327
56357
56359
56670
56743
56748
56761
56762
56815
56818
56839
56840
56848
56947
56990
57001
57006
57133
57145
57146
57193
57206
57257
57282
57560
57561
57562
57564
57569
57578
57625
57761
57763
57833
57895
57901
57902
57903
57935
57936
57959
58011
58023
58032
58033
58042
58050
58112
58275
58288
58379
58788
58986
59425
59429
59431
59433
59447
59451
59499
59505
59508
59560
59610
59681
59698
60297
60303
60313
60320
60441
60448
60450
60462
60554
60579
60609
60611
60781
60783
60784
60785
60981
60990
60995
60998
61001
61030
61059
61529
61535
61591
61592
62214
62220
62502
64277
64477
65183
65251
65252
65518
65693
65696
65725
65729
65732
65734
65851
67065
67129
67157
67159
67163
67292
67293
67334
67421
67442
67526
67542
67723
67988
68014
68015
68019
68033
68088
68143
68148
68163
68226
68543
68680
68833
68844
69187
69331
69516
69642
69643
69750
69814
69827
[ 85 ]
47492
50061
50464
50465
50629
50830
50843
50847
50850
50852
51905
51908
51957
51989
51990
52004
52063
53090
53224
53239
53249
53262
53264
53265
53268
53270
53296
53297
53310
53312
53313
53316
53319
53320
53323
53344
53350
53352
53358
53359
53369
53372
53377
53378
53385
53386
53390
53393
53394
53401
53415
53419
53422
53437
53439
53610
53614
53632
53947
54042
54114
54133
54145
54261
54289
54290
54388
54493
54509
54609
54782
54843
54855
54878
54902
54933
54962
54999
55006
55014
55015
55059
55069
55082
55101
55196
55197
55212
55215
55218
55256
55265
55463
55540
55710
55713
55717
55968
56232
56281
56287
56293
56297
56304
56309
56314
56394
56556
56626
56627
56687
56694
56744
56746
56805
56806
56824
56831
56882
57088
57090
57091
57199
57230
57255
57553
57557
57581
57589
57594
57669
57745
57746
57753
57755
57762
57778
57817
57818
57836
57879
57882
57892
57893
57896
57907
57921
57933
57944
57946
57954
57955
57983
57986
57989
57999
58000
58004
58005
58007
58012
58018
58025
58028
58029
58030
58031
58164
58204
58261
58265
58298
58328
59443
59448
59453
59456
59506
59510
59511
59516
59517
59638
59671
60207
60300
60304
60307
60428
60544
60561
60606
60612
60618
60646
60652
60656
60682
60683
60708
60730
60734
60737
60739
60756
60984
60985
60994
61003
61033
61528
62324
65730
68008
68671
68673
69434
69435
[ 86 ]
47425
47431
47432
47456
50168
50400
50634
50833
50848
51912
52088
52103
52386
53031
53032
53067
53128
53212
53228
53229
53244
53257
53258
53260
53263
53266
53271
53273
53284
53291
53294
53295
53324
53330
53333
53335
53340
53361
53370
53375
53395
53400
53411
53434
53435
53436
53457
53513
53557
53558
53571
53599
53606
53617
53622
53636
53670
53671
53940
54061
54101
54102
54143
54250
54255
54256
54279
54301
54466
54592
54601
54606
54624
54637
54652
54655
54698
54834
54835
54838
54839
54840
54875
54938
54948
55002
55004
55022
55055
55074
55131
55154
55157
55220
55228
55704
56285
56364
56374
56375
56376
56688
56808
56994
57024
57026
57084
57086
57152
57170
57172
57194
57209
57223
57285
57359
57382
57459
57497
57498
57551
57555
57556
57585
57592
57596
57636
57637
57655
57661
57662
57744
57756
57758
57827
57832
57881
57890
57891
57910
57916
57919
57930
57934
57937
57938
57941
57942
57943
57945
57948
57962
57975
57976
57980
57982
57984
57995
57996
58001
58006
58008
58013
58020
58021
58027
58101
58111
58218
58266
58295
58347
58387
60580
60589
60617
60619
60620
60637
60660
60680
60692
60757
60759
60760
60986
60993
61006
61273
[ 87 ]
47433
47442
47466
47467
47481
47484
47485
47490
50612
50849
52022
52024
52087
52093
52107
52108
52282
52287
52433
52482
53048
53054
53057
53109
53259
53279
53306
53308
53357
53383
53407
53410
53413
53417
53447
53452
53471
53495
53574
53590
53623
53631
53634
53758
53782
53795
54148
54240
54619
54621
54622
54634
54661
54662
54903
55007
55018
55049
55050
55054
55207
56387
56389
56419
56453
56486
56632
56634
56665
56674
56703
56801
57027
57097
57098
57109
57110
57122
57124
57181
57202
57299
57323
57457
57480
57494
57500
57509
57512
57522
57525
57554
57565
57566
57584
57587
57590
57591
57598
57601
57629
57632
57635
57642
57645
57646
57647
57651
57652
57672
57677
57680
57747
57913
57927
57931
57963
57997
58019
58026
58100
58125
58242
58348
59572
59576
60565
60568
60578
60600
60623
60626
60659
60663
60664
60671
60672
60678
60681
60689
60707
60709
60711
60713
60720
60721
60722
60736
60743
60748
60987
[ 88 ]
47437
47444
47482
47483
52092
52099
52125
52147
52209
52281
52284
52299
52400
52421
52430
52463
52471
52891
53055
53058
53223
53269
53274
53280
53304
53327
53332
53336
53414
53433
53448
53468
53473
53573
53579
53587
53616
53618
53628
53779
53780
53797
53824
53898
53966
54070
54150
54229
54327
54842
54923
55023
56402
56433
56438
56444
56470
56471
56495
56657
57108
57116
57196
57221
57373
57374
57376
57377
57383
57426
57493
57501
57510
57517
57518
57520
57527
57529
57530
57533
57599
57600
57609
57638
57648
57649
57676
57678
57685
57759
57855
57926
57960
57974
57985
58022
58202
60559
60563
60631
60636
60686
60691
60693
60701
60716
60717
60718
60746
60747
60764
[ 89 ]
47451
47480
52112
52116
52119
52141
52152
52180
52227
52268
52276
52280
52285
52294
52318
52342
52378
52399
52401
52402
52405
52419
52429
52489
52491
52510
52582
52892
53056
53119
53277
53461
53465
53472
53569
53620
53621
53627
53640
53660
53695
53889
53893
54945
55219
56454
56479
56487
56492
56515
56529
56542
57349
57364
57367
57380
57384
57505
57515
57540
57961
60642
60695
60705
60706
60710
60715
60751
60758
[ 90 ]
47438
47447
47449
52109
52110
52114
52177
52181
52200
52204
52221
52267
52272
52279
52303
52308
52345
52347
52377
52391
52410
52424
52426
52455
52478
52483
52505
52521
52554
52811
53463
53563
53566
53582
53742
53790
53847
53891
53899
54950
56407
56434
56455
56491
56502
56518
56522
56541
56798
56799
57368
57372
57378
60635
60694
[ 91 ]
47450
52142
52149
52164
52184
52196
52202
52220
52222
52223
52243
52278
52297
52310
52315
52344
52368
52374
52408
52412
52422
52428
52439
52479
52515
52533
52545
52573
52642
52793
52795
52803
53665
53809
56437
57641
[ 92 ]
52113
52186
52187
52191
52194
52195
52198
52277
52298
52311
52359
52411
52413
52452
52477
52529
52561
52641
53581
56520
[ 93 ]
52171
52185
52325
52327
52349
52364
52416
52454
52519
52522
52528
52530
[ 94 ]
52189
52414
52441
52449
52453
[ 95 ]
52165
[ 100 ]
8963
8964
8965
11442
[ 101 ]
4359
8862
8940
8954
8962
9195
11448
51677
[ 102 ]
8960
9469
10695
11449
11523
51295
51296
[ 103 ]
4283
6155
6156
6185
6187
6202
6240
6266
8957
10218
11453
15274
51294
51298
[ 104 ]
4282
4285
6144
6145
6147
6148
6154
6165
6178
6179
6189
6192
6193
6204
6222
6223
6301
6364
6366
8403
8405
8941
8956
8958
10155
15329
16921
16922
19953
19970
20402
21673
21805
51280
51282
51283
51289
51300
51302
51674
[ 105 ]
4314
4316
6146
6211
6243
6262
6365
6375
6439
8407
8972
9464
11467
16928
18232
19978
20152
20156
51262
51275
51281
51284
51287
51291
51301
51673
51675
51731
[ 106 ]
4311
6160
6197
6274
6460
8399
8410
16098
16926
17342
19212
20154
20157
20439
50001
51271
51274
51277
51278
51285
51288
51303
51667
51668
51676
51683
51690
51730
51738
51744
[ 107 ]
4313
6253
6377
15097
15387
20461
22110
22571
42749
51221
51223
51228
51229
51230
51261
51267
51268
51286
51312
51361
51362
51363
51365
51606
51643
51644
51645
51654
51669
51684
51685
51689
51721
51726
51741
51745
51770
51795
59018
59894
61377
[ 108 ]
4028
15386
15845
17889
22146
30396
42758
50002
50003
50004
50211
50212
51067
51069
51074
51077
51153
51163
51170
51173
51178
51180
51183
51184
51192
51232
51233
51252
51263
51266
51270
51273
51309
51313
51333
51345
51348
51349
51353
51357
51364
51366
51367
51371
51525
51601
51604
51605
51607
51608
51619
51626
51633
51642
51646
51648
51651
51652
51665
51666
51691
51693
51694
51697
51698
51713
51720
51722
51737
51739
51740
51743
51746
51747
51748
59015
59110
59248
59904
60029
60257
61255
61256
61261
61266
61378
61379
61439
61785
[ 109 ]
16009
16073
22676
22919
30446
42426
42727
50145
50206
50210
50524
50676
50677
50715
50720
50721
50906
50921
50968
50969
50970
50971
50974
50981
50982
51030
51068
51076
51148
51149
51152
51162
51165
51167
51169
51174
51175
51181
51182
51185
51195
51196
51197
51222
51225
51234
51264
51269
51308
51332
51334
51338
51344
51346
51358
51376
51377
51381
51383
51393
51395
51397
51490
51524
51560
51565
51586
51587
51598
51599
51600
51602
51616
51617
51620
51622
51628
51634
51637
51647
51649
51653
51656
51658
51670
51671
51692
51696
51701
51702
51716
51736
51750
51755
51765
51791
51794
51838
51839
51842
51843
52068
55977
56100
56135
56136
58767
58862
58870
59010
59016
59026
59028
59030
59037
59039
59040
59057
59098
59105
59109
59111
59119
59123
59168
59170
59242
59245
59246
59247
59263
59279
59283
59292
59313
59325
59364
59735
59849
59852
59860
59862
59865
59868
59903
59970
59995
60033
60043
60046
60105
60248
60528
60530
60852
60919
61128
61205
61207
61212
61213
61247
61250
61254
61264
61267
61269
61354
61356
61373
61406
61412
61414
61440
61715
61760
61761
61765
61783
61786
61788
61947
62074
63472
63475
63478
63485
63574
63578
64851
66429
68646
69013
[ 110 ]
39325
39327
41130
41626
41681
42202
50093
50134
50135
50238
50408
50410
50551
50684
50692
50693
50702
50709
50711
50717
50889
50900
50914
50919
50924
50928
50933
50967
50979
51033
51034
51040
51065
51071
51072
51073
51105
51142
51147
51151
51164
51168
51171
51172
51176
51177
51179
51187
51190
51191
51194
51200
51227
51236
51247
51253
51254
51255
51256
51257
51307
51317
51318
51319
51323
51324
51325
51339
51352
51354
51356
51360
51374
51375
51378
51385
51387
51388
51390
51437
51448
51453
51474
51488
51501
51514
51526
51550
51553
51556
51558
51563
51564
51568
51595
51603
51610
51629
51632
51635
51638
51641
51663
51664
51700
51703
51705
51751
51752
51756
51757
51760
51766
51767
51777
51779
51793
51814
51821
51824
51830
51840
52072
55993
56016
56088
56089
56091
56103
56107
56111
56114
56126
56127
56137
56731
58077
58619
58624
58762
58817
58826
58834
58837
58843
58844
58860
58861
58863
58864
58866
58867
58868
58869
58872
58882
58884
58886
58887
58893
59004
59005
59009
59011
59014
59024
59025
59029
59031
59033
59034
59041
59042
59045
59050
59051
59084
59085
59086
59087
59088
59089
59100
59117
59166
59169
59194
59222
59249
59251
59257
59260
59265
59276
59277
59278
59280
59284
59305
59307
59337
59340
59353
59365
59366
59367
59372
59373
59704
59733
59734
59737
59740
59773
59784
59795
59811
59812
59816
59823
59824
59827
59829
59834
59837
59838
59844
59847
59848
59851
59853
59854
59858
59863
59864
59866
59867
59877
59891
59893
59895
59898
59901
59905
59984
59993
59994
59996
59997
60000
60004
60025
60030
60045
60049
60051
60053
60056
60068
60085
60106
60126
60127
60128
60129
60134
60180
60182
60249
60255
60261
60262
60263
60350
60494
60500
60501
60511
60853
60911
60912
60913
60915
60917
60926
60946
60947
61080
61092
61093
61095
61098
61099
61105
61116
61132
61133
61134
61136
61146
61148
61149
61150
61161
61171
61173
61182
61191
61198
61201
61203
61206
61208
61209
61210
61211
61214
61228
61238
61240
61257
61259
61262
61265
61313
61325
61335
61339
61351
61352
61353
61357
61358
61359
61381
61383
61390
61405
61409
61410
61411
61413
61415
61419
61422
61430
61436
61438
61448
61477
61494
61659
61710
61721
61759
61787
61789
61802
61806
61848
61995
61999
62002
62005
62065
62066
62067
62070
62071
62076
62078
62079
62084
62089
62095
62101
62106
62107
62142
62143
62157
62161
62395
62552
62560
62722
62959
62961
62965
62980
63017
63019
63042
63065
63187
63260
63287
63294
63345
63346
63371
63414
63415
63418
63422
63423
63456
63463
63468
63469
63470
63477
63479
63480
63487
63488
63565
63568
63576
63584
63590
63598
63600
63701
63708
63711
63718
63732
63754
63756
63757
63761
63774
63791
63818
63826
63836
63844
63857
63985
64284
64347
64349
64814
64843
64844
64845
64852
65463
65465
65466
65468
65497
66302
66333
66336
66337
66339
66360
66387
66390
66396
66399
66401
66404
66409
66414
66449
66454
66468
66473
66524
66539
66542
66668
66744
66785
68632
68643
68647
68648
69111
69354
[ 111 ]
30814
32148
32150
37518
37520
39280
39332
41126
42513
42829
46408
47007
47013
47018
47019
47033
50005
50068
50095
50107
50108
50111
50136
50170
50177
50194
50207
50208
50215
50229
50232
50256
50261
50346
50351
50395
50406
50461
50546
50570
50626
50667
50679
50691
50700
50708
50710
50714
50718
50719
50722
50732
50738
50753
50754
50762
50763
50780
50901
50917
50931
50954
50955
50964
50966
50976
50977
50983
50993
50994
50995
50998
51012
51032
51035
51038
51039
51041
51084
51085
51108
51140
51141
51143
51144
51150
51155
51161
51202
51203
51204
51207
51216
51237
51238
51248
51249
51250
51311
51322
51331
51336
51337
51341
51342
51343
51351
51355
51359
51369
51370
51373
51386
51389
51398
51434
51456
51457
51472
51475
51489
51494
51495
51500
51504
51506
51507
51541
51559
51561
51566
51567
51580
51584
51589
51593
51594
51597
51655
51660
51688
51699
51706
51707
51709
51711
51723
51763
51764
51773
51785
51790
51816
51819
51828
51837
51841
51844
51855
51856
51930
51931
52039
52041
52055
52073
55303
55329
55357
55512
55520
55620
55622
55676
55677
55878
55906
55982
55991
55995
55998
55999
56009
56018
56019
56021
56027
56035
56051
56052
56053
56054
56055
56063
56067
56071
56073
56074
56082
56084
56085
56092
56093
56098
56099
56101
56106
56108
56112
56113
56116
56128
56143
56144
56146
56241
56242
56718
56935
56961
56975
58056
58080
58487
58596
58608
58615
58616
58618
58620
58622
58629
58687
58722
58761
58763
58770
58773
58802
58813
58815
58821
58825
58838
58842
58855
58865
58871
58891
58894
58898
58911
58994
59003
59007
59008
59021
59022
59035
59049
59066
59069
59070
59077
59078
59081
59090
59091
59107
59115
59122
59126
59134
59145
59146
59162
59163
59167
59171
59174
59175
59186
59189
59190
59192
59193
59195
59197
59201
59205
59235
59240
59244
59250
59267
59268
59269
59281
59290
59291
59293
59294
59295
59298
59304
59306
59316
59317
59321
59322
59335
59338
59345
59349
59352
59354
59356
59357
59358
59360
59362
59363
59368
59369
59370
59394
59395
59396
59397
59398
59550
59727
59728
59731
59732
59750
59757
59765
59774
59775
59776
59777
59778
59783
59786
59794
59802
59806
59807
59808
59809
59815
59818
59819
59820
59822
59826
59830
59839
59840
59841
59842
59846
59855
59857
59859
59861
59879
59882
59887
59890
59892
59897
59899
59900
59910
59921
59956
59969
59982
59983
59985
59986
59987
59991
59999
60003
60005
60006
60007
60024
60028
60031
60035
60040
60041
60044
60050
60052
60054
60055
60065
60066
60067
60069
60074
60076
60077
60078
60083
60090
60093
60099
60108
60110
60113
60121
60138
60143
60144
60146
60154
60160
60162
60176
60178
60190
60191
60194
60195
60232
60233
60250
60254
60256
60260
60346
60353
60361
60362
60369
60370
60394
60432
60472
60474
60482
60483
60493
60495
60498
60504
60507
60514
60517
60522
60532
60533
60535
60537
60538
60834
60841
60851
60885
60886
60898
60899
60900
60902
60903
60914
60918
60923
60925
60944
60945
60948
61071
61073
61083
61085
61090
61097
61104
61106
61111
61113
61115
61121
61122
61129
61130
61131
61137
61143
61147
61151
61157
61159
61162
61163
61164
61165
61169
61170
61174
61180
61181
61183
61184
61192
61193
61195
61199
61200
61216
61218
61225
61232
61234
61239
61241
61242
61243
61270
61310
61311
61337
61344
61345
61346
61348
61349
61350
61364
61365
61368
61392
61393
61407
61416
61417
61418
61424
61441
61442
61457
61464
61466
61471
61481
61482
61764
61767
61768
61773
61798
61799
61800
61834
61836
61865
61883
61887
61888
61889
61892
61898
61900
61905
61909
61912
61913
61926
61945
61946
61948
61949
61950
61951
61964
61966
61968
61981
61982
61990
61994
61996
61997
61998
62001
62006
62007
62017
62019
62021
62025
62039
62055
62061
62062
62063
62064
62072
62081
62082
62085
62087
62092
62094
62098
62099
62102
62103
62108
62109
62110
62111
62118
62120
62123
62131
62145
62151
62153
62158
62162
62166
62340
62352
62380
62381
62393
62467
62531
62539
62543
62544
62554
62556
62557
62558
62561
62562
62563
62566
62567
62569
62594
62605
62622
62623
62628
62630
62631
62635
62697
62700
62723
62730
62732
62733
62752
62760
62768
62775
62804
62808
62846
62847
62852
62853
62855
62882
62883
62886
62897
62899
62912
62918
62925
62929
62931
62932
62933
62945
62946
62948
62958
62964
62967
62970
62971
62975
62976
62977
62978
62981
62982
62986
62988
62991
62994
62995
63000
63009
63016
63018
63026
63027
63028
63035
63036
63041
63049
63050
63051
63053
63055
63059
63062
63066
63068
63069
63072
63077
63081
63082
63084
63085
63086
63094
63109
63116
63117
63118
63124
63129
63132
63138
63140
63141
63143
63145
63174
63183
63184
63185
63188
63190
63214
63216
63223
63225
63226
63229
63231
63232
63236
63237
63239
63240
63244
63250
63252
63254
63257
63258
63259
63261
63267
63268
63269
63279
63280
63281
63283
63285
63289
63290
63291
63292
63293
63295
63296
63299
63303
63306
63320
63324
63325
63331
63332
63333
63334
63337
63338
63344
63347
63352
63354
63356
63357
63358
63360
63361
63362
63364
63365
63369
63373
63374
63376
63397
63398
63402
63403
63405
63406
63409
63416
63417
63419
63426
63427
63428
63429
63430
63431
63433
63455
63457
63460
63462
63464
63465
63466
63467
63471
63473
63474
63476
63484
63492
63498
63510
63512
63513
63514
63515
63522
63529
63531
63532
63533
63570
63571
63573
63582
63583
63588
63589
63591
63595
63596
63601
63602
63603
63604
63613
63614
63628
63647
63693
63694
63697
63702
63703
63704
63706
63707
63710
63712
63716
63720
63721
63725
63726
63727
63749
63750
63751
63753
63758
63767
63768
63771
63773
63776
63781
63784
63785
63787
63788
63794
63796
63797
63798
63799
63800
63802
63803
63807
63810
63811
63819
63820
63821
63822
63829
63834
63839
63843
63845
63847
63850
63853
63859
63860
63861
63873
63894
63898
63926
63927
63987
63990
64088
64124
64126
64130
64133
64135
64147
64152
64153
64154
64299
64338
64342
64346
64390
64679
64682
64686
64689
64691
64712
64734
64743
64747
64748
64762
64763
64765
64768
64784
64789
64792
64806
64811
64815
64816
64817
64818
64824
64825
64828
64829
64834
64835
64836
64839
64841
64842
64846
64848
64861
64866
64903
64904
64928
64931
65011
65137
65334
65464
65467
65472
65475
65478
65483
65485
65491
65496
65944
65983
66064
66167
66218
66224
66227
66255
66277
66300
66303
66325
66329
66330
66334
66335
66340
66341
66346
66348
66350
66351
66352
66358
66361
66366
66367
66368
66371
66373
66382
66385
66386
66388
66389
66391
66392
66393
66397
66400
66405
66406
66407
66410
66418
66419
66420
66421
66422
66423
66424
66425
66426
66427
66430
66432
66443
66448
66450
66453
66455
66456
66459
66461
66462
66466
66467
66469
66470
66474
66475
66476
66488
66504
66505
66506
66510
66512
66519
66521
66523
66526
66536
66541
66546
66551
66552
66558
66564
66565
66570
66573
66575
66581
66582
66583
66588
66590
66601
66607
66612
66637
66640
66641
66642
66644
66650
66651
66656
66659
66660
66661
66667
66675
66678
66687
66690
66695
66696
66697
66699
66704
66710
66720
66723
66724
66725
66727
66729
66731
66733
66737
66741
66751
66759
66762
66764
66769
66779
66784
66787
66801
66897
66904
66905
66990
67013
67402
68259
68449
68624
68630
68633
68644
68645
68649
68650
68687
68775
68797
68965
68998
68999
69001
69006
69050
69051
69052
69215
69231
69363
69378
69415
69635
69994
[ 112 ]
32086
36771
37435
37485
37514
37519
39282
39285
39311
39312
39328
39329
39344
39346
39365
39366
39382
40480
40508
40703
40801
41478
41556
41557
41722
42415
42520
42684
42834
44520
47008
47017
47052
47054
47056
50020
50065
50067
50094
50099
50100
50101
50106
50133
50143
50146
50150
50173
50176
50187
50188
50193
50195
50200
50203
50204
50205
50209
50233
50234
50239
50241
50246
50255
50267
50371
50383
50396
50403
50409
50411
50490
50523
50525
50540
50542
50545
50569
50571
50593
50594
50661
50671
50698
50699
50701
50703
50704
50712
50713
50716
50737
50739
50740
50743
50752
50760
50764
50771
50774
50787
50811
50885
50896
50898
50908
50910
50920
50925
50934
50952
50961
51003
51011
51025
51026
51028
51031
51037
51044
51048
51063
51064
51082
51083
51086
51106
51111
51112
51117
51138
51139
51156
51157
51160
51186
51188
51201
51215
51218
51219
51235
51314
51315
51327
51329
51340
51379
51410
51433
51435
51436
51444
51447
51451
51462
51463
51470
51473
51487
51492
51498
51505
51509
51516
51519
51529
51538
51542
51554
51562
51581
51582
51585
51590
51591
51612
51614
51624
51661
51662
51708
51710
51772
51780
51784
51786
51806
51809
51813
51820
51823
51829
51831
51832
51834
51893
51898
51926
51933
51972
51973
51974
51985
52001
52052
52053
52054
52056
52060
52069
54809
54814
54815
54825
54826
55298
55300
55301
55304
55309
55312
55313
55315
55317
55326
55327
55330
55332
55335
55336
55349
55359
55361
55369
55370
55371
55372
55382
55383
55395
55397
55410
55413
55429
55446
55481
55488
55491
55492
55493
55500
55507
55508
55511
55513
55525
55545
55604
55617
55618
55619
55621
55623
55631
55632
55659
55662
55672
55678
55871
55876
55877
55887
55888
55890
55894
55904
55905
55907
55915
55917
55972
55976
55979
55981
55986
55987
55988
55990
55996
55997
56020
56028
56029
56031
56033
56034
56037
56038
56039
56040
56043
56045
56056
56060
56064
56065
56066
56068
56072
56075
56096
56097
56102
56104
56109
56117
56122
56123
56138
56147
56156
56162
56171
56243
56248
56742
56773
56890
56939
56962
56964
56976
58060
58062
58068
58072
58076
58089
58093
58502
58505
58571
58577
58578
58580
58582
58583
58594
58598
58599
58603
58604
58605
58607
58609
58610
58611
58612
58614
58617
58623
58625
58631
58632
58644
58645
58671
58684
58717
58721
58724
58726
58731
58736
58738
58740
58741
58744
58745
58750
58766
58768
58778
58784
58799
58803
58804
58805
58807
58812
58822
58824
58845
58846
58848
58854
58856
58857
58858
58873
58874
58877
58890
58895
58896
58897
58899
58900
58908
58910
58913
58930
58931
58955
58997
58998
59001
59012
59013
59032
59047
59056
59061
59063
59064
59072
59076
59080
59082
59083
59104
59124
59125
59135
59140
59158
59160
59165
59172
59180
59187
59188
59191
59196
59200
59209
59217
59218
59219
59221
59223
59228
59230
59233
59239
59243
59252
59253
59254
59266
59274
59275
59285
59296
59300
59301
59303
59308
59312
59320
59326
59329
59336
59339
59341
59347
59348
59371
59374
59375
59377
59378
59379
59380
59382
59384
59392
59400
59402
59717
59718
59720
59726
59736
59741
59746
59751
59753
59759
59760
59766
59767
59771
59779
59780
59785
59787
59789
59790
59791
59792
59796
59798
59799
59800
59801
59804
59805
59810
59817
59821
59831
59833
59845
59856
59870
59871
59873
59878
59880
59881
59884
59885
59886
59906
59907
59909
59911
59919
59920
59922
59929
59931
59932
59935
59938
59939
59944
59948
59951
59953
59954
59955
59957
59958
59959
59967
59973
59974
59975
59981
59988
59989
59990
60015
60036
60037
60039
60048
60057
60060
60061
60062
60064
60073
60075
60081
60084
60086
60089
60091
60098
60104
60115
60120
60122
60123
60124
60131
60137
60140
60142
60145
60147
60149
60153
60155
60156
60163
60164
60165
60166
60169
60177
60179
60184
60186
60192
60200
60234
60241
60242
60246
60247
60252
60264
60265
60270
60281
60284
60285
60323
60326
60328
60347
60359
60360
60364
60378
60384
60386
60404
60410
60468
60477
60478
60481
60484
60486
60487
60489
60492
60496
60502
60513
60515
60516
60520
60526
60527
60531
60539
60540
60541
60796
60800
60804
60805
60836
60837
60854
60855
60856
60859
60862
60872
60873
60874
60880
60882
60890
60891
60892
60893
60894
60896
60907
60908
60909
60916
60927
60940
60941
60942
60943
60954
61068
61072
61079
61082
61084
61088
61102
61112
61118
61119
61120
61123
61126
61142
61144
61154
61168
61172
61187
61194
61196
61202
61204
61219
61222
61223
61226
61233
61249
61268
61271
61298
61309
61322
61326
61332
61334
61340
61341
61347
61386
61388
61420
61468
61470
61473
61475
61479
61480
61484
61485
61490
61491
61492
61551
61658
61762
61763
61770
61774
61801
61804
61805
61835
61847
61858
61866
61886
61893
61894
61895
61899
61901
61902
61903
61904
61906
61907
61908
61910
61911
61916
61917
61919
61929
61933
61935
61937
61943
61944
61953
61957
61971
61974
61977
61980
61986
61991
62003
62004
62008
62011
62018
62024
62030
62033
62037
62038
62040
62041
62047
62051
62052
62054
62060
62090
62091
62096
62097
62100
62112
62113
62114
62117
62119
62121
62127
62129
62130
62133
62137
62152
62155
62156
62159
62163
62164
62178
62281
62284
62338
62354
62357
62372
62390
62396
62401
62414
62440
62456
62464
62495
62507
62522
62523
62534
62535
62536
62537
62542
62545
62548
62549
62551
62553
62555
62564
62565
62568
62570
62571
62572
62590
62591
62593
62595
62606
62609
62611
62614
62617
62618
62621
62625
62627
62629
62632
62633
62634
62637
62642
62643
62652
62657
62659
62667
62675
62676
62684
62685
62693
62698
62707
62709
62714
62724
62727
62729
62731
62734
62735
62736
62740
62750
62751
62753
62756
62757
62758
62759
62761
62762
62765
62766
62771
62772
62773
62774
62783
62790
62799
62802
62803
62806
62807
62814
62817
62818
62819
62823
62825
62826
62829
62843
62845
62856
62857
62862
62864
62871
62872
62874
62881
62884
62885
62887
62889
62891
62893
62896
62901
62902
62903
62905
62906
62907
62909
62913
62914
62915
62916
62917
62920
62921
62923
62924
62930
62934
62935
62936
62937
62939
62942
62947
62950
62951
62953
62960
62963
62966
62968
62983
62984
62989
62990
62992
62993
62997
62999
63003
63004
63005
63011
63012
63013
63015
63022
63025
63032
63033
63037
63038
63040
63043
63045
63046
63047
63056
63057
63060
63063
63067
63075
63078
63080
63088
63091
63099
63102
63103
63104
63105
63106
63110
63113
63114
63115
63120
63121
63131
63134
63139
63142
63146
63147
63150
63153
63158
63159
63162
63163
63164
63166
63168
63170
63172
63173
63176
63181
63182
63186
63191
63192
63193
63194
63197
63199
63200
63202
63204
63206
63208
63210
63211
63212
63213
63217
63218
63219
63221
63234
63235
63238
63243
63246
63247
63248
63249
63251
63253
63255
63262
63263
63264
63265
63270
63272
63274
63276
63282
63284
63286
63288
63297
63298
63300
63301
63302
63304
63307
63308
63309
63310
63311
63314
63316
63319
63321
63322
63323
63326
63336
63340
63342
63343
63348
63349
63350
63351
63353
63355
63359
63366
63367
63368
63372
63377
63378
63379
63380
63382
63383
63386
63387
63388
63391
63392
63393
63394
63395
63400
63407
63408
63410
63413
63420
63421
63424
63425
63434
63440
63441
63443
63444
63446
63447
63449
63450
63452
63453
63458
63459
63461
63481
63489
63491
63495
63497
63499
63500
63502
63503
63505
63507
63518
63524
63525
63528
63534
63535
63540
63541
63543
63545
63547
63548
63549
63555
63557
63561
63562
63563
63566
63593
63594
63606
63611
63615
63619
63625
63627
63630
63648
63652
63655
63656
63658
63659
63660
63662
63679
63680
63688
63690
63691
63692
63696
63699
63700
63713
63714
63715
63717
63719
63724
63728
63729
63730
63731
63734
63740
63746
63748
63775
63777
63779
63780
63789
63790
63793
63795
63801
63809
63814
63815
63816
63817
63823
63824
63825
63828
63849
63854
63864
63871
63875
63879
63881
63887
63889
63893
63912
63930
63932
63942
63951
63960
63964
63967
63969
63973
63974
63975
63976
63977
63978
63986
63988
63989
63992
63993
63995
63996
63997
63998
63999
64005
64006
64020
64021
64035
64057
64059
64060
64061
64066
64085
64089
64123
64125
64127
64128
64131
64136
64137
64138
64140
64141
64143
64144
64145
64148
64149
64151
64156
64158
64159
64163
64188
64291
64295
64297
64298
64300
64317
64324
64325
64327
64330
64343
64344
64345
64351
64352
64353
64365
64366
64376
64378
64379
64380
64391
64397
64399
64401
64402
64403
64406
64418
64420
64425
64426
64428
64435
64439
64440
64442
64445
64447
64505
64519
64522
64524
64526
64582
64659
64678
64680
64683
64685
64709
64715
64716
64717
64732
64733
64741
64744
64752
64760
64761
64764
64766
64773
64776
64777
64782
64785
64787
64788
64790
64791
64793
64794
64795
64797
64807
64809
64812
64819
64820
64821
64822
64826
64827
64831
64837
64847
64849
64853
64854
64855
64857
64858
64859
64860
64863
64868
64869
64872
64880
64889
64891
64892
64906
64907
64908
64915
64921
64922
64925
64932
64935
64936
64945
64965
64976
64982
64986
64987
64998
65013
65014
65015
65041
65046
65058
65059
65072
65094
65104
65109
65113
65122
65125
65135
65138
65141
65199
65276
65282
65310
65313
65315
65317
65331
65332
65440
65474
65486
65488
65489
65490
65492
65493
65499
65500
65528
65606
65607
65608
65622
65623
65631
65651
65652
65685
65804
65828
65829
65832
65834
65845
65870
65874
65876
65882
65894
65922
65926
65943
65945
65971
65981
65986
65987
65988
65990
65998
66003
66007
66017
66059
66063
66065
66068
66069
66081
66112
66113
66119
66122
66126
66130
66131
66152
66159
66160
66163
66192
66197
66204
66210
66212
66219
66226
66231
66232
66233
66235
66237
66243
66244
66245
66248
66250
66251
66253
66257
66260
66268
66269
66273
66280
66281
66287
66288
66290
66291
66292
66293
66295
66296
66297
66304
66315
66323
66326
66328
66331
66332
66338
66349
66355
66356
66369
66374
66377
66378
66379
66394
66395
66398
66412
66413
66415
66431
66433
66436
66439
66440
66445
66451
66452
66460
66463
66465
66471
66477
66478
66479
66480
66481
66487
66491
66493
66494
66496
66500
66501
66503
66507
66508
66509
66511
66515
66516
66517
66520
66522
66527
66529
66532
66534
66535
66538
66540
66543
66547
66550
66553
66555
66557
66561
66562
66563
66566
66569
66572
66574
66577
66578
66580
66584
66589
66591
66595
66596
66599
66603
66604
66605
66606
66610
66628
66630
66636
66638
66643
66645
66646
66647
66649
66657
66658
66663
66665
66666
66670
66671
66672
66673
66674
66679
66681
66682
66684
66685
66691
66694
66698
66700
66701
66702
66705
66706
66707
66711
66712
66715
66721
66722
66728
66734
66735
66738
66739
66740
66742
66743
66746
66747
66757
66760
66763
66767
66772
66773
66775
66776
66777
66778
66782
66783
66788
66791
66792
66800
66802
66803
66822
66825
66831
66841
66845
66854
66855
66856
66857
66858
66863
66867
66872
66896
66898
66899
66900
66901
66915
66918
66922
66925
66934
66943
66984
66986
66989
66991
66995
66998
67006
67008
67014
67015
67016
67242
67244
67281
67331
67400
67407
67414
67434
67632
67636
67638
67641
67687
67689
67759
67815
67818
67819
67824
67826
67827
67838
67853
67854
67859
67909
67947
67954
68047
68112
68118
68157
68215
68250
68270
68274
68304
68350
68352
68365
68384
68413
68414
68431
68432
68434
68452
68459
68460
68466
68468
68470
68472
68483
68535
68555
68620
68623
68628
68629
68631
68635
68636
68641
68651
68652
68653
68654
68686
68690
68721
68745
68755
68773
68855
68856
68858
68861
68862
68863
68864
68865
68880
68882
68901
68904
68924
68927
68958
68960
68961
68962
68975
68977
68978
68979
68980
68983
68986
68988
68990
68995
68996
69000
69002
69003
69004
69009
69011
69012
69016
69036
69037
69040
69041
69042
69043
69044
69049
69053
69072
69075
69077
69102
69113
69114
69130
69133
69148
69149
69151
69230
69235
69250
69253
69303
69350
69353
69356
69359
69381
69382
69391
69395
69399
69403
69413
69475
69477
69484
69533
69535
69549
69552
69553
69556
69557
69563
69565
69575
69636
69647
69648
69725
69741
69778
69874
69880
69889
69897
69902
69904
69906
69907
69912
69916
69952
69953
69955
69961
69969
69974
69975
69976
69986
69989
69991
69993
69995
70000
[ 113 ]
30775
30818
30819
32039
32073
35339
36048
36423
36643
36647
36908
37513
39277
39291
39315
39323
39331
39333
39340
39345
39353
39361
39383
40547
41566
41709
46404
47021
47031
47032
47049
47070
47251
47509
50022
50024
50032
50044
50045
50048
50049
50051
50074
50083
50084
50088
50102
50109
50110
50112
50123
50124
50153
50164
50174
50189
50190
50196
50216
50221
50240
50244
50253
50263
50275
50277
50285
50320
50335
50343
50348
50349
50373
50378
50390
50394
50397
50404
50405
50412
50414
50434
50443
50459
50468
50471
50536
50544
50552
50554
50563
50627
50652
50654
50662
50663
50670
50674
50680
50682
50683
50690
50694
50705
50706
50707
50724
50727
50731
50734
50735
50736
50741
50745
50748
50755
50767
50785
50837
50892
50893
50894
50897
50899
50907
50909
50927
50944
50945
50947
50951
50956
50960
50962
50991
51002
51004
51043
51061
51080
51102
51107
51113
51159
51208
51209
51210
51217
51320
51321
51330
51335
51401
51403
51421
51422
51426
51441
51446
51450
51452
51461
51468
51477
51480
51481
51482
51493
51496
51497
51510
51511
51520
51521
51527
51528
51532
51540
51545
51548
51569
51571
51572
51574
51579
51615
51630
51695
51762
51771
51788
51811
51812
51835
51836
51850
51861
51876
51897
51915
51927
51929
51950
51952
51970
51996
52015
52040
52042
52057
52059
52061
52065
52066
52080
53098
53102
53155
53158
54109
54422
54823
54828
54829
55274
55276
55277
55278
55281
55282
55284
55285
55288
55291
55293
55294
55296
55302
55306
55308
55310
55311
55314
55316
55320
55321
55323
55324
55325
55328
55331
55334
55337
55338
55341
55346
55348
55350
55351
55353
55354
55355
55358
55360
55364
55368
55375
55380
55385
55387
55388
55389
55390
55398
55399
55400
55403
55404
55407
55408
55409
55412
55414
55415
55419
55431
55435
55440
55444
55445
55451
55452
55480
55497
55501
55502
55503
55504
55509
55510
55514
55517
55519
55522
55523
55524
55526
55527
55528
55530
55531
55532
55533
55534
55535
55546
55548
55551
55558
55562
55565
55571
55573
55574
55575
55576
55603
55605
55606
55614
55615
55624
55625
55626
55627
55630
55633
55635
55638
55639
55641
55643
55645
55647
55649
55658
55661
55664
55668
55669
55670
55673
55675
55679
55683
55686
55689
55692
55699
55842
55872
55873
55875
55889
55892
55893
55895
55902
55903
55910
55919
55920
55926
55933
55938
55939
55944
55947
55971
55973
55974
55975
55980
56006
56010
56012
56015
56025
56026
56032
56044
56057
56058
56059
56070
56095
56110
56121
56124
56132
56141
56142
56145
56154
56159
56172
56173
56179
56180
56194
56252
56253
56254
56257
56271
56337
56716
56736
56740
56769
56778
56780
56781
56911
56913
56922
56923
56930
56931
56933
56945
56948
56949
56960
56965
56967
56969
56973
56977
56978
57002
58037
58038
58041
58047
58048
58054
58055
58059
58061
58063
58067
58073
58074
58075
58079
58081
58084
58088
58092
58281
58507
58567
58573
58584
58590
58591
58592
58601
58602
58626
58630
58647
58656
58658
58665
58669
58673
58683
58685
58688
58691
58693
58698
58702
58703
58704
58707
58708
58709
58718
58720
58723
58725
58732
58733
58735
58739
58742
58746
58749
58751
58752
58754
58755
58759
58760
58771
58775
58776
58777
58780
58781
58785
58786
58797
58798
58801
58814
58820
58823
58830
58831
58832
58833
58841
58847
58849
58850
58851
58852
58876
58881
58904
58906
58909
58912
58915
58916
58918
58919
58921
58922
58925
58929
58932
58933
58939
58941
58942
58943
58944
58946
58949
58952
58953
58954
58960
58961
58966
58969
58970
58971
58972
58993
59002
59019
59055
59058
59062
59071
59074
59127
59128
59129
59131
59133
59139
59143
59144
59151
59153
59154
59156
59157
59176
59181
59182
59184
59185
59204
59208
59211
59214
59227
59236
59237
59238
59255
59270
59286
59287
59310
59314
59318
59323
59327
59333
59334
59343
59346
59351
59376
59381
59385
59388
59389
59390
59391
59393
59403
59405
59411
59552
59554
59555
59557
59559
59568
59585
59587
59691
59692
59700
59706
59707
59708
59710
59719
59723
59730
59742
59743
59744
59748
59754
59755
59756
59768
59770
59788
59793
59813
59875
59889
59924
59925
59926
59928
59930
59933
59936
59940
59942
59946
59949
59950
59962
59963
59971
59979
60010
60012
60016
60019
60020
60022
60023
60070
60071
60080
60087
60112
60114
60118
60150
60151
60152
60159
60167
60168
60170
60172
60174
60189
60193
60196
60197
60199
60201
60219
60220
60227
60230
60231
60235
60236
60245
60253
60272
60274
60279
60287
60288
60290
60292
60322
60341
60342
60343
60345
60349
60351
60354
60373
60374
60377
60379
60385
60387
60388
60390
60393
60400
60402
60408
60411
60412
60422
60425
60430
60433
60435
60437
60457
60465
60471
60475
60476
60485
60488
60490
60491
60497
60499
60518
60524
60525
60536
60797
60798
60799
60803
60809
60815
60819
60820
60822
60833
60835
60838
60839
60843
60849
60857
60858
60869
60879
60888
60889
60895
60905
60906
60932
60934
60935
60951
60952
60955
60956
60959
60968
61055
61077
61086
61087
61091
61094
61101
61103
61109
61110
61125
61139
61177
61179
61190
61221
61230
61280
61283
61287
61294
61295
61296
61300
61305
61323
61327
61331
61483
61489
61493
61803
61837
61849
61853
61855
61857
61861
61862
61864
61869
61870
61875
61876
61882
61884
61890
61896
61920
61921
61925
61938
61963
61967
61973
61975
61979
61983
61984
61985
61992
62010
62028
62034
62048
62049
62050
62093
62115
62124
62125
62126
62132
62136
62138
62139
62140
62141
62144
62146
62147
62167
62169
62171
62172
62173
62177
62179
62185
62219
62222
62235
62242
62259
62263
62270
62271
62279
62280
62282
62283
62285
62286
62289
62296
62297
62309
62310
62330
62333
62336
62339
62341
62349
62351
62353
62355
62358
62361
62362
62364
62365
62368
62369
62370
62371
62374
62375
62377
62379
62385
62388
62402
62406
62407
62409
62410
62411
62415
62417
62418
62427
62428
62430
62442
62449
62451
62455
62459
62462
62469
62470
62471
62472
62473
62476
62478
62486
62487
62510
62518
62520
62524
62532
62533
62540
62547
62550
62559
62578
62580
62581
62582
62584
62586
62588
62598
62602
62607
62608
62610
62612
62613
62615
62620
62624
62636
62638
62639
62640
62641
62644
62648
62649
62650
62651
62653
62654
62655
62656
62658
62660
62661
62662
62663
62664
62665
62666
62668
62670
62671
62673
62677
62679
62680
62682
62683
62686
62690
62692
62695
62696
62708
62711
62717
62719
62720
62721
62726
62728
62737
62738
62739
62741
62743
62744
62745
62746
62747
62748
62749
62764
62767
62769
62776
62777
62779
62780
62785
62787
62789
62791
62792
62794
62796
62798
62800
62810
62820
62822
62824
62827
62831
62832
62839
62841
62850
62859
62860
62863
62867
62868
62869
62870
62878
62879
62888
62890
62892
62894
62895
62904
62938
62940
62941
62952
62956
62969
62996
62998
63001
63021
63029
63052
63079
63083
63092
63096
63101
63107
63108
63112
63119
63122
63127
63128
63130
63135
63149
63151
63152
63154
63156
63167
63171
63175
63177
63178
63179
63180
63196
63198
63201
63209
63220
63224
63271
63312
63313
63315
63318
63335
63384
63389
63396
63399
63435
63436
63438
63442
63445
63448
63451
63483
63490
63493
63494
63501
63509
63520
63537
63539
63544
63550
63552
63559
63560
63587
63607
63608
63609
63610
63616
63617
63618
63620
63621
63622
63624
63629
63631
63636
63638
63640
63644
63649
63650
63651
63653
63657
63664
63665
63666
63669
63671
63675
63676
63678
63682
63683
63685
63686
63687
63722
63723
63735
63737
63739
63742
63743
63744
63745
63747
63752
63808
63813
63858
63863
63866
63867
63876
63878
63884
63885
63900
63906
63908
63913
63914
63916
63920
63922
63925
63931
63938
63946
63947
63950
63954
63955
63959
63963
63966
63968
63971
63979
63984
64000
64001
64002
64003
64004
64017
64018
64023
64024
64025
64026
64027
64044
64045
64046
64048
64049
64050
64053
64056
64063
64064
64065
64067
64070
64073
64075
64086
64110
64113
64117
64119
64121
64122
64129
64155
64157
64162
64174
64183
64185
64189
64196
64198
64199
64200
64202
64222
64223
64238
64240
64242
64244
64249
64250
64251
64267
64281
64283
64286
64287
64290
64292
64296
64301
64302
64305
64309
64310
64312
64313
64315
64316
64318
64319
64320
64321
64322
64323
64326
64331
64332
64335
64336
64340
64354
64355
64357
64360
64361
64362
64364
64367
64371
64373
64374
64377
64381
64382
64383
64389
64396
64400
64404
64408
64414
64415
64416
64419
64421
64422
64423
64429
64434
64437
64438
64446
64450
64451
64456
64457
64466
64468
64473
64484
64487
64499
64504
64507
64509
64513
64515
64521
64525
64532
64550
64553
64556
64557
64565
64575
64583
64584
64589
64599
64600
64608
64631
64632
64633
64634
64644
64648
64654
64656
64658
64663
64668
64669
64673
64677
64684
64693
64694
64695
64700
64706
64707
64708
64710
64711
64714
64718
64719
64721
64722
64723
64737
64738
64739
64742
64746
64749
64751
64753
64757
64767
64772
64774
64775
64779
64781
64796
64798
64799
64800
64808
64810
64856
64865
64867
64871
64873
64874
64882
64890
64893
64895
64896
64897
64898
64902
64910
64914
64919
64923
64933
64940
64942
64944
64947
64955
64960
64962
64963
64967
64979
64980
64981
64983
64985
64988
64990
64991
64996
64997
65000
65003
65005
65009
65010
65024
65025
65026
65035
65036
65037
65042
65043
65050
65051
65054
65066
65073
65074
65076
65077
65079
65081
65082
65098
65099
65100
65101
65105
65108
65110
65111
65112
65115
65116
65117
65118
65119
65120
65124
65127
65128
65130
65136
65140
65148
65151
65152
65153
65154
65163
65164
65168
65171
65173
65179
65191
65198
65200
65207
65209
65211
65212
65213
65214
65215
65216
65220
65225
65230
65263
65267
65273
65274
65275
65279
65290
65295
65299
65300
65301
65303
65304
65307
65309
65311
65316
65319
65323
65326
65327
65328
65329
65330
65333
65339
65340
65342
65346
65353
65354
65355
65356
65380
65398
65399
65413
65423
65435
65436
65438
65441
65451
65454
65457
65458
65460
65461
65462
65495
65498
65502
65503
65505
65507
65516
65524
65526
65527
65530
65533
65534
65546
65571
65575
65576
65578
65595
65621
65624
65625
65632
65637
65638
65640
65649
65661
65665
65672
65677
65679
65681
65682
65684
65686
65738
65740
65776
65779
65785
65793
65795
65805
65810
65811
65812
65813
65814
65816
65822
65823
65830
65835
65836
65838
65839
65849
65857
65861
65863
65864
65865
65866
65869
65872
65880
65883
65884
65885
65892
65899
65905
65912
65916
65920
65925
65927
65929
65930
65934
65935
65937
65941
65942
65949
65958
65965
65968
65969
65970
65973
65975
65980
65982
65989
65993
65995
65999
66001
66002
66005
66006
66008
66014
66015
66018
66020
66022
66023
66031
66040
66046
66053
66058
66061
66062
66070
66071
66072
66073
66075
66076
66077
66082
66083
66084
66090
66091
66097
66102
66103
66106
66107
66108
66109
66120
66123
66125
66127
66129
66132
66133
66135
66136
66137
66139
66142
66143
66148
66149
66151
66153
66158
66161
66162
66166
66169
66173
66177
66181
66182
66183
66196
66198
66199
66200
66201
66202
66205
66206
66208
66209
66211
66215
66216
66220
66221
66223
66229
66240
66241
66242
66246
66247
66249
66256
66258
66259
66261
66266
66272
66276
66278
66283
66284
66285
66286
66294
66312
66313
66316
66317
66318
66342
66343
66344
66354
66364
66365
66408
66416
66482
66483
66484
66486
66489
66498
66499
66514
66531
66545
66548
66549
66554
66556
66560
66567
66571
66587
66592
66593
66597
66600
66602
66613
66614
66615
66619
66621
66622
66626
66627
66631
66633
66648
66652
66664
66680
66686
66688
66692
66693
66719
66736
66745
66749
66750
66752
66754
66756
66761
66797
66798
66805
66807
66808
66810
66811
66813
66818
66819
66824
66826
66827
66830
66839
66840
66842
66844
66846
66849
66850
66853
66860
66861
66864
66868
66874
66880
66882
66883
66908
66910
66912
66916
66917
66919
66921
66927
66928
66930
66931
66933
66937
66939
66942
66948
66951
66954
66957
66959
66964
66967
66983
66992
66993
66994
67000
67005
67009
67011
67017
67018
67027
67040
67045
67046
67049
67051
67052
67055
67056
67071
67083
67086
67099
67100
67112
67113
67116
67117
67120
67121
67131
67132
67133
67143
67146
67148
67151
67188
67190
67192
67196
67200
67204
67206
67207
67218
67222
67226
67227
67235
67238
67243
67245
67247
67251
67259
67262
67280
67282
67285
67287
67309
67310
67311
67319
67323
67325
67338
67339
67344
67347
67349
67379
67389
67392
67397
67398
67399
67403
67404
67406
67411
67413
67415
67428
67432
67433
67478
67479
67481
67483
67499
67513
67536
67550
67551
67567
67584
67600
67605
67606
67610
67618
67623
67624
67625
67626
67628
67635
67639
67644
67645
67657
67664
67670
67676
67677
67683
67684
67686
67691
67694
67695
67696
67703
67711
67718
67741
67742
67761
67770
67780
67796
67798
67799
67803
67805
67806
67813
67816
67817
67820
67821
67823
67829
67830
67831
67832
67833
67834
67836
67837
67839
67846
67860
67865
67867
67868
67872
67875
67879
67896
67899
67908
67910
67918
67919
67926
67941
67949
67953
67964
67972
67977
67981
68045
68090
68105
68106
68107
68108
68109
68114
68126
68133
68134
68139
68153
68179
68183
68184
68192
68193
68195
68200
68202
68211
68237
68242
68251
68254
68255
68256
68262
68265
68267
68268
68269
68271
68272
68273
68275
68276
68277
68278
68282
68283
68285
68287
68288
68308
68311
68315
68316
68317
68318
68323
68328
68330
68338
68347
68351
68359
68360
68362
68369
68370
68379
68383
68385
68386
68388
68390
68392
68403
68408
68410
68412
68415
68418
68419
68420
68428
68430
68433
68435
68436
68438
68439
68441
68445
68446
68448
68453
68454
68455
68456
68457
68458
68461
68464
68471
68473
68476
68477
68479
68481
68482
68484
68485
68486
68487
68489
68496
68497
68500
68503
68506
68508
68511
68512
68513
68516
68519
68529
68545
68554
68565
68580
68616
68637
68638
68640
68682
68689
68691
68694
68696
68698
68699
68700
68712
68720
68722
68723
68728
68729
68730
68732
68736
68740
68742
68744
68746
68748
68749
68750
68751
68763
68765
68767
68771
68772
68776
68777
68778
68781
68783
68786
68790
68796
68800
68801
68802
68803
68804
68805
68808
68819
68850
68857
68866
68869
68877
68879
68885
68891
68893
68896
68897
68898
68900
68912
68917
68920
68922
68923
68925
68928
68943
68944
68945
68952
68956
68959
68964
68968
68972
68973
68981
68982
68987
68989
68991
68992
68993
68997
69007
69010
69017
69045
69047
69048
69056
69061
69062
69063
69064
69065
69068
69070
69073
69083
69085
69087
69095
69097
69099
69104
69105
69106
69107
69108
69115
69116
69117
69119
69128
69131
69132
69135
69136
69150
69153
69157
69158
69159
69170
69174
69179
69204
69214
69217
69219
69221
69224
69225
69234
69237
69243
69244
69249
69251
69256
69257
69263
69267
69269
69272
69274
69276
69277
69278
69280
69290
69292
69296
69301
69315
69319
69320
69322
69327
69328
69335
69336
69337
69338
69340
69341
69349
69355
69372
69374
69379
69380
69383
69384
69388
69396
69397
69398
69408
69414
69416
69417
69418
69419
69428
69430
69446
69469
69483
69486
69488
69489
69491
69492
69523
69528
69530
69531
69534
69537
69539
69541
69542
69543
69551
69555
69558
69560
69561
69562
69566
69567
69568
69569
69570
69573
69574
69576
69578
69582
69583
69587
69592
69593
69594
69595
69596
69598
69599
69608
69612
69613
69622
69624
69625
69633
69634
69646
69651
69658
69665
69672
69673
69674
69682
69687
69688
69689
69691
69692
69693
69697
69698
69711
69719
69721
69724
69735
69767
69768
69774
69780
69788
69800
69825
69835
69846
69861
69862
69866
69875
69876
69882
69883
69888
69890
69892
69894
69896
69899
69903
69914
69917
69920
69951
69954
69958
69959
69960
69967
69970
69973
69981
69984
69992
69997
[ 114 ]
30761
32079
32087
33720
35336
35337
36007
36090
36293
36864
37153
37224
37283
37419
37507
37511
38077
39314
39317
39354
39362
39364
39367
40476
40500
41133
41527
41542
42556
46399
46402
46403
47034
47038
47040
47047
47051
47055
47057
47058
47062
47065
47069
47203
47236
47248
47249
47250
47288
47289
47290
47295
47302
47304
47305
47309
47356
47370
47376
47500
47502
47510
50006
50007
50011
50018
50019
50026
50027
50030
50033
50035
50036
50043
50050
50052
50066
50070
50071
50076
50079
50081
50082
50087
50089
50091
50113
50122
50125
50126
50157
50172
50175
50181
50186
50197
50198
50222
50225
50226
50243
50245
50247
50251
50252
50270
50287
50288
50289
50313
50322
50325
50337
50342
50347
50353
50369
50376
50377
50379
50386
50388
50392
50393
50418
50432
50435
50441
50442
50445
50457
50469
50473
50477
50484
50491
50516
50526
50559
50566
50572
50579
50584
50590
50599
50600
50620
50628
50642
50651
50656
50666
50668
50669
50688
50728
50733
50744
50757
50765
50766
50768
50772
50773
50775
50778
50781
50784
50812
50836
50839
50866
50870
50878
50895
50935
50938
50939
50943
50946
50959
50965
50984
50986
50987
50990
50992
50999
51001
51006
51009
51027
51045
51047
51049
51081
51089
51091
51093
51096
51097
51100
51101
51103
51110
51121
51123
51125
51129
51130
51136
51137
51158
51213
51214
51241
51242
51244
51326
51402
51404
51406
51411
51414
51416
51419
51424
51440
51442
51443
51460
51467
51469
51478
51484
51485
51512
51513
51531
51544
51547
51570
51577
51781
51782
51787
51804
51807
51808
51846
51858
51862
51864
51870
51889
51894
51896
51899
51903
51916
51928
51934
51951
51968
51975
51979
51980
51983
51987
51993
51994
52019
52021
52031
52044
52046
52049
52050
52064
52077
52084
53070
53080
53091
53096
53099
53100
53101
53103
53106
53157
53159
53174
53184
53518
53519
54043
54045
54046
54170
54198
54407
54418
54419
54423
54426
54444
54450
54504
54510
54514
54516
54518
54536
54568
54570
54571
54760
54765
54775
54799
54800
54804
54812
54816
54817
54824
54866
55098
55119
55136
55139
55221
55243
55268
55272
55275
55279
55286
55287
55289
55295
55319
55339
55344
55345
55347
55367
55376
55377
55378
55379
55381
55384
55386
55401
55418
55421
55423
55424
55425
55426
55428
55432
55433
55434
55436
55437
55439
55441
55447
55449
55474
55477
55484
55486
55487
55490
55495
55496
55499
55521
55537
55547
55550
55552
55560
55561
55564
55566
55570
55572
55577
55578
55583
55584
55585
55586
55587
55592
55593
55595
55608
55610
55611
55612
55616
55628
55629
55634
55636
55648
55651
55653
55655
55665
55666
55667
55671
55680
55681
55685
55695
55696
55697
55698
55700
55733
55739
55746
55764
55766
55770
55771
55773
55775
55778
55792
55793
55795
55837
55843
55860
55861
55862
55863
55864
55866
55869
55870
55879
55880
55882
55884
55897
55898
55901
55916
55929
55936
55941
55942
55943
55946
55955
55961
56002
56042
56061
56062
56081
56157
56158
56161
56163
56165
56168
56169
56170
56176
56181
56183
56184
56190
56215
56224
56225
56226
56227
56240
56245
56251
56255
56256
56266
56270
56272
56276
56278
56330
56338
56339
56349
56379
56711
56720
56764
56767
56770
56776
56782
56783
56785
56787
56793
56810
56854
56905
56909
56924
56928
56932
56938
56951
56953
56954
56957
56966
56968
56974
56980
56981
56985
56988
56999
57003
57062
57076
57143
57334
57734
57834
58036
58044
58045
58046
58049
58053
58058
58064
58065
58071
58082
58083
58086
58091
58105
58133
58226
58270
58271
58279
58284
58291
58292
58312
58352
58416
58553
58558
58565
58570
58574
58579
58581
58588
58627
58634
58637
58638
58640
58646
58655
58660
58663
58664
58666
58668
58670
58672
58676
58677
58680
58682
58690
58695
58696
58697
58699
58700
58701
58710
58711
58714
58715
58727
58743
58747
58753
58772
58774
58779
58783
58800
58806
58839
58875
58878
58903
58905
58926
58927
58928
58936
58937
58938
58940
58945
58947
58950
58957
58958
58959
58963
58965
59059
59067
59130
59137
59138
59149
59150
59152
59177
59199
59202
59203
59212
59213
59225
59226
59231
59234
59271
59272
59273
59309
59328
59350
59386
59406
59407
59408
59409
59414
59415
59421
59422
59423
59430
59445
59501
59502
59533
59537
59538
59548
59551
59556
59558
59561
59567
59592
59624
59626
59673
59676
59677
59687
59689
59693
59696
59699
59701
59703
59709
59711
59715
59722
59724
59725
59761
59762
59888
59908
59916
59923
59943
59972
59977
59978
60018
60072
60102
60103
60171
60188
60202
60214
60215
60216
60217
60221
60225
60226
60244
60266
60271
60293
60295
60316
60318
60324
60339
60340
60344
60355
60357
60363
60365
60368
60371
60372
60375
60381
60382
60391
60397
60398
60399
60413
60415
60426
60427
60434
60436
60439
60446
60453
60456
60458
60469
60480
60509
60523
60543
60731
60791
60792
60806
60807
60808
60811
60821
60823
60827
60828
60830
60831
60832
60844
60845
60846
60847
60848
60870
60922
60991
60997
61046
61051
61063
61066
61067
61176
61178
61272
61286
61288
61290
61299
61303
61469
61487
61868
61871
61872
61885
61915
61940
61954
61958
61959
61961
61969
61970
61972
61976
61988
62135
62149
62165
62176
62180
62181
62183
62186
62189
62191
62195
62199
62212
62221
62225
62226
62229
62230
62232
62233
62234
62237
62239
62241
62245
62246
62248
62250
62253
62256
62258
62261
62267
62269
62277
62290
62293
62295
62298
62299
62300
62302
62303
62306
62311
62313
62314
62317
62318
62320
62326
62327
62331
62335
62342
62343
62347
62348
62356
62360
62363
62367
62373
62386
62389
62397
62398
62400
62405
62412
62413
62422
62423
62424
62425
62429
62436
62437
62439
62441
62443
62444
62446
62447
62453
62457
62458
62460
62465
62474
62475
62477
62479
62480
62481
62482
62484
62485
62492
62494
62496
62497
62504
62505
62508
62509
62511
62516
62517
62519
62521
62526
62530
62574
62575
62576
62601
62645
62646
62647
62669
62672
62674
62688
62694
62703
62704
62710
62713
62715
62716
62718
62778
62784
62793
62809
62811
62812
62813
62834
62835
62837
62838
62840
62842
62849
62876
63095
63111
63148
63157
63385
63412
63437
63496
63508
63538
63564
63623
63632
63633
63634
63635
63637
63643
63646
63661
63667
63668
63672
63673
63738
63874
63882
63890
63892
63899
63901
63903
63909
63910
63911
63915
63918
63943
63944
63945
63949
63953
63956
63957
63962
63965
63972
64008
64009
64011
64012
64015
64019
64022
64028
64030
64032
64036
64037
64038
64039
64047
64051
64069
64074
64076
64078
64080
64081
64082
64083
64084
64092
64094
64096
64098
64099
64102
64104
64105
64106
64109
64112
64114
64115
64120
64142
64161
64171
64176
64181
64191
64194
64201
64205
64208
64212
64214
64218
64220
64225
64226
64228
64234
64235
64236
64241
64243
64245
64246
64247
64248
64258
64262
64263
64268
64272
64274
64275
64282
64285
64288
64306
64307
64308
64311
64329
64333
64334
64341
64356
64358
64359
64363
64368
64369
64370
64375
64386
64388
64393
64394
64395
64405
64410
64412
64413
64417
64430
64432
64436
64444
64448
64449
64452
64460
64462
64463
64465
64467
64469
64471
64474
64478
64481
64485
64489
64490
64491
64492
64493
64497
64503
64506
64508
64511
64512
64514
64516
64517
64523
64527
64528
64529
64531
64533
64534
64535
64536
64538
64540
64548
64554
64555
64561
64563
64564
64566
64567
64568
64569
64570
64571
64572
64573
64574
64576
64577
64579
64581
64585
64586
64593
64595
64604
64605
64607
64609
64613
64614
64635
64637
64638
64640
64641
64642
64650
64651
64652
64653
64655
64660
64661
64664
64667
64675
64696
64701
64702
64703
64705
64720
64725
64728
64729
64730
64731
64735
64736
64745
64754
64770
64771
64778
64780
64801
64802
64803
64805
64876
64878
64883
64911
64913
64939
64941
64943
64946
64948
64949
64952
64956
64959
64964
64966
64970
64973
64974
64984
64989
65001
65004
65006
65022
65028
65034
65038
65039
65040
65044
65049
65052
65055
65056
65060
65062
65063
65064
65065
65070
65075
65080
65085
65089
65090
65091
65092
65095
65097
65102
65103
65106
65123
65126
65131
65132
65144
65145
65146
65147
65149
65159
65162
65165
65167
65169
65170
65172
65174
65178
65180
65181
65182
65184
65185
65189
65190
65192
65194
65195
65197
65201
65202
65217
65219
65221
65222
65223
65228
65236
65238
65244
65255
65257
65261
65264
65266
65268
65271
65277
65284
65286
65288
65289
65296
65302
65306
65308
65312
65322
65325
65335
65337
65341
65343
65344
65345
65347
65350
65357
65358
65359
65363
65364
65367
65369
65376
65378
65379
65385
65386
65387
65391
65394
65397
65403
65404
65406
65417
65421
65422
65424
65430
65432
65434
65442
65443
65444
65446
65450
65452
65459
65508
65511
65514
65519
65523
65525
65531
65532
65535
65536
65537
65538
65543
65544
65545
65548
65551
65554
65557
65560
65561
65562
65564
65565
65567
65568
65569
65572
65577
65579
65583
65584
65585
65590
65592
65593
65596
65597
65599
65601
65611
65612
65613
65615
65617
65630
65636
65639
65641
65645
65646
65648
65655
65656
65657
65660
65662
65664
65673
65674
65678
65687
65691
65728
65751
65753
65754
65755
65759
65761
65763
65768
65769
65771
65778
65781
65782
65783
65786
65790
65794
65806
65807
65808
65819
65820
65824
65833
65837
65840
65841
65843
65844
65848
65854
65856
65858
65859
65862
65867
65868
65873
65878
65887
65890
65891
65895
65896
65897
65898
65910
65914
65915
65919
65923
65924
65936
65938
65939
65946
65948
65953
65955
65960
65962
65963
65964
65966
65967
65976
65977
65991
65992
65994
66009
66010
66011
66016
66024
66025
66033
66034
66035
66036
66037
66041
66043
66050
66056
66057
66079
66085
66086
66088
66089
66096
66098
66099
66100
66101
66104
66111
66117
66124
66128
66145
66146
66156
66164
66165
66168
66170
66174
66178
66180
66184
66186
66187
66188
66189
66190
66191
66194
66195
66207
66213
66222
66225
66228
66262
66263
66264
66265
66275
66299
66306
66307
66345
66485
66495
66497
66616
66617
66620
66625
66753
66794
66806
66809
66814
66816
66817
66820
66821
66829
66835
66836
66837
66843
66848
66851
66852
66859
66873
66875
66876
66881
66884
66885
66887
66890
66892
66893
66906
66907
66932
66935
66944
66946
66947
66950
66952
66958
66962
66963
66966
66968
66969
66970
66974
66981
67002
67003
67004
67007
67010
67012
67019
67020
67021
67024
67026
67028
67030
67031
67032
67037
67038
67039
67041
67043
67044
67047
67050
67053
67054
67059
67060
67061
67063
67070
67072
67073
67074
67075
67076
67077
67078
67079
67082
67085
67087
67090
67091
67092
67093
67094
67095
67097
67101
67103
67107
67109
67115
67123
67124
67125
67130
67134
67138
67139
67140
67141
67145
67150
67181
67184
67187
67189
67193
67198
67201
67202
67203
67205
67212
67213
67220
67223
67230
67236
67237
67246
67253
67254
67255
67257
67260
67268
67273
67274
67275
67277
67278
67279
67283
67284
67286
67288
67291
67294
67302
67303
67305
67306
67307
67313
67314
67320
67321
67324
67327
67330
67335
67337
67341
67343
67346
67355
67365
67367
67369
67371
67372
67375
67377
67378
67383
67390
67394
67395
67417
67422
67425
67426
67430
67431
67436
67444
67445
67446
67454
67456
67458
67463
67466
67469
67473
67488
67489
67492
67493
67496
67498
67500
67504
67509
67510
67511
67519
67522
67533
67535
67537
67538
67541
67547
67548
67553
67559
67560
67569
67572
67573
67575
67578
67581
67582
67585
67587
67588
67592
67593
67595
67597
67599
67601
67602
67604
67607
67609
67613
67617
67619
67620
67621
67622
67627
67629
67630
67631
67637
67640
67642
67643
67648
67651
67652
67654
67658
67660
67661
67666
67667
67669
67673
67678
67681
67685
67688
67690
67693
67697
67698
67699
67701
67702
67704
67706
67709
67714
67716
67720
67721
67726
67727
67728
67731
67732
67734
67735
67736
67738
67740
67743
67744
67745
67751
67752
67753
67754
67755
67757
67760
67762
67766
67767
67768
67771
67772
67773
67774
67776
67777
67781
67789
67790
67791
67792
67794
67795
67797
67801
67802
67804
67807
67808
67809
67811
67812
67822
67835
67841
67842
67844
67845
67847
67848
67849
67852
67855
67857
67861
67862
67864
67871
67878
67880
67881
67883
67888
67889
67890
67891
67892
67893
67897
67901
67902
67903
67904
67905
67906
67907
67911
67914
67916
67921
67922
67925
67928
67929
67930
67934
67936
67937
67939
67940
67942
67944
67948
67951
67952
67956
67959
67960
67962
67966
67967
67968
67970
67971
67974
67975
67976
67978
67979
67980
67982
68000
68001
68017
68024
68039
68040
68041
68043
68044
68046
68055
68060
68062
68073
68074
68075
68078
68081
68082
68084
68089
68092
68095
68101
68102
68103
68104
68113
68117
68119
68120
68121
68125
68128
68129
68131
68137
68141
68144
68146
68149
68152
68154
68155
68160
68161
68164
68166
68171
68172
68173
68174
68181
68186
68187
68188
68199
68201
68203
68205
68207
68212
68214
68217
68219
68220
68223
68224
68228
68229
68236
68238
68239
68240
68263
68266
68279
68280
68284
68289
68290
68291
68292
68300
68306
68307
68309
68310
68321
68325
68326
68327
68329
68333
68335
68336
68340
68342
68343
68346
68349
68353
68354
68356
68357
68358
68361
68364
68374
68375
68376
68378
68380
68381
68382
68387
68389
68393
68394
68395
68396
68398
68399
68400
68402
68404
68405
68406
68407
68409
68411
68416
68417
68421
68424
68427
68437
68442
68443
68462
68463
68465
68474
68475
68488
68490
68491
68493
68494
68495
68502
68505
68507
68514
68517
68518
68521
68525
68526
68530
68531
68533
68537
68546
68547
68549
68551
68552
68556
68557
68561
68564
68567
68569
68570
68571
68572
68586
68587
68588
68594
68597
68598
68599
68613
68614
68615
68617
68619
68661
68662
68664
68681
68685
68695
68697
68704
68705
68706
68708
68709
68711
68714
68715
68725
68726
68731
68735
68737
68739
68743
68756
68758
68761
68762
68764
68769
68770
68784
68787
68788
68789
68792
68795
68799
68806
68807
68809
68811
68814
68817
68820
68822
68823
68824
68826
68827
68839
68845
68848
68851
68853
68854
68870
68872
68873
68884
68887
68888
68889
68892
68894
68895
68903
68907
68908
68910
68911
68913
68915
68918
68921
68934
68939
68940
68946
68950
68966
68967
68969
68971
68976
68994
69018
69021
69026
69027
69028
69030
69039
69054
69055
69057
69058
69067
69074
69084
69086
69088
69089
69091
69093
69096
69100
69101
69109
69110
69118
69120
69123
69126
69129
69138
69140
69145
69154
69156
69160
69161
69162
69163
69167
69169
69171
69173
69176
69182
69209
69211
69212
69213
69216
69218
69220
69227
69228
69233
69238
69245
69246
69247
69248
69252
69254
69255
69258
69260
69261
69273
69281
69291
69295
69297
69300
69302
69311
69313
69318
69321
69324
69329
69330
69342
69357
69360
69362
69368
69387
69389
69393
69401
69405
69410
69411
69420
69424
69449
69450
69453
69458
69465
69468
69472
69478
69481
69493
69494
69500
69502
69504
69505
69506
69508
69509
69512
69513
69514
69521
69540
69545
69579
69580
69581
69584
69585
69591
69597
69600
69601
69603
69604
69605
69606
69607
69610
69617
69618
69620
69626
69627
69637
69638
69644
69645
69653
69662
69666
69670
69675
69676
69678
69680
69683
69685
69686
69690
69694
69699
69700
69701
69703
69704
69705
69706
69710
69712
69713
69716
69717
69718
69720
69723
69731
69736
69738
69739
69740
69744
69745
69751
69758
69762
69764
69766
69769
69773
69775
69776
69777
69786
69787
69797
69801
69811
69823
69824
69826
69828
69829
69834
69836
69837
69843
69844
69845
69847
69849
69858
69859
69860
69863
69869
69878
69879
69886
69887
69895
69898
69901
69905
69908
69909
69910
69911
69913
69919
69923
69938
69950
69962
69966
69968
69979
69982
69983
69998
[ 115 ]
30827
32081
32084
32085
34234
35332
35341
36029
36225
36406
36433
36485
36511
36515
36518
36593
36826
37051
37119
37133
37192
37240
37369
37374
37407
37881
38081
38082
38084
39283
39316
39320
39359
39376
39380
40420
40711
47035
47037
47039
47046
47050
47059
47060
47061
47063
47066
47067
47112
47113
47153
47185
47211
47213
47220
47266
47280
47291
47292
47301
47303
47308
47311
47333
47392
47486
47495
47498
50009
50021
50025
50039
50042
50060
50077
50103
50104
50131
50137
50154
50155
50160
50162
50167
50171
50182
50224
50228
50242
50248
50276
50301
50323
50329
50350
50356
50359
50361
50362
50363
50367
50370
50389
50415
50429
50431
50437
50444
50446
50449
50458
50463
50472
50474
50485
50487
50488
50494
50495
50500
50502
50527
50529
50533
50553
50555
50557
50564
50568
50583
50616
50617
50622
50624
50625
50636
50638
50646
50655
50659
50675
50687
50750
50776
50782
50783
50788
50790
50791
50793
50796
50808
50809
50810
50813
50814
50817
50845
50859
50860
50862
50864
50865
50868
50877
50936
50948
50949
50950
50958
51000
51005
51007
51050
51059
51090
51095
51098
51099
51115
51120
51122
51126
51128
51135
51211
51243
51246
51412
51415
51427
51459
51465
51536
51575
51578
51803
51818
51833
51849
51866
51869
51875
51883
51885
51886
51888
51890
51891
51892
51901
51920
51921
51941
51948
51949
51953
51955
51959
51962
51964
51977
51984
51986
51988
51992
52003
52006
52010
52035
52037
52047
52076
52998
53071
53082
53086
53097
53104
53105
53122
53145
53146
53147
53152
53153
53156
53162
53175
53183
53185
53192
53194
53196
53197
53234
53238
53255
53346
53347
53348
53365
53388
53404
53502
53517
53520
53613
53861
53862
53874
53974
53984
54044
54047
54048
54054
54067
54083
54105
54107
54113
54118
54136
54138
54173
54193
54200
54211
54213
54275
54365
54384
54390
54406
54409
54420
54430
54442
54443
54445
54451
54453
54489
54494
54507
54517
54520
54522
54523
54525
54526
54529
54569
54572
54617
54725
54727
54767
54768
54771
54774
54777
54779
54780
54794
54796
54798
54801
54802
54805
54818
54820
54830
54852
54857
54865
54886
54889
54893
54896
54897
54900
54901
54960
54963
54968
54979
54983
54988
55025
55037
55071
55085
55096
55099
55100
55105
55107
55108
55111
55113
55115
55116
55128
55134
55135
55140
55143
55177
55184
55230
55236
55239
55241
55244
55252
55266
55267
55269
55270
55271
55273
55394
55402
55405
55406
55422
55443
55448
55450
55455
55459
55461
55464
55465
55466
55467
55470
55476
55479
55536
55544
55549
55553
55556
55580
55589
55590
55596
55599
55609
55640
55642
55644
55646
55652
55654
55657
55690
55693
55694
55706
55708
55709
55722
55729
55730
55731
55732
55742
55744
55751
55753
55765
55767
55776
55779
55781
55783
55791
55796
55797
55801
55806
55808
55814
55826
55828
55830
55836
55839
55844
55846
55849
55857
55859
55865
55868
55874
55881
55883
55885
55899
55900
55928
55930
55932
55934
55948
55951
55952
55962
55964
55966
55967
55969
56118
56119
56139
56151
56164
56166
56167
56175
56187
56188
56189
56197
56199
56202
56214
56218
56223
56228
56239
56244
56259
56263
56264
56269
56273
56298
56299
56302
56306
56321
56326
56328
56334
56336
56340
56343
56347
56371
56598
56682
56709
56715
56739
56759
56763
56766
56768
56788
56790
56791
56792
56809
56812
56816
56819
56837
56847
56849
56857
56861
56885
56889
56891
56892
56894
56916
56917
56919
56927
56937
56941
56952
56958
56959
56979
56982
56986
56987
56989
57018
57020
57050
57061
57072
57073
57093
57132
57135
57136
57138
57141
57142
57265
57267
57268
57276
57558
57559
57570
57579
57674
57704
57876
57877
57886
57894
57922
57923
57992
58014
58035
58069
58094
58095
58103
58131
58139
58159
58176
58180
58183
58184
58185
58192
58195
58201
58214
58222
58260
58272
58273
58276
58277
58278
58283
58287
58289
58305
58306
58362
58363
58368
58369
58378
58390
58395
58407
58409
58415
58434
58437
58440
58530
58569
58585
58587
58606
58633
58636
58641
58642
58652
58653
58654
58667
58674
58678
58679
58681
58686
58692
58694
58712
58787
58789
58790
58808
58819
58880
58934
58948
58956
58990
58991
59183
59331
59413
59417
59428
59432
59434
59444
59454
59471
59492
59496
59500
59504
59515
59529
59535
59536
59539
59540
59545
59546
59549
59553
59562
59564
59569
59588
59591
59627
59628
59629
59633
59635
59648
59653
59667
59669
59684
59686
59688
59702
59763
59764
59912
59913
59918
59927
59941
60017
60173
60203
60208
60209
60210
60213
60218
60228
60243
60286
60298
60306
60310
60321
60330
60338
60366
60383
60406
60407
60414
60417
60419
60420
60421
60424
60440
60442
60443
60444
60449
60451
60454
60455
60460
60467
60593
60594
60596
60607
60732
60789
60795
60824
60829
60936
60938
60939
60958
60969
60976
61000
61002
61047
61049
61054
61056
61058
61064
61065
61076
61291
61292
61302
61860
61897
61939
61962
62184
62188
62193
62194
62196
62197
62198
62200
62204
62205
62206
62208
62209
62211
62218
62228
62231
62240
62244
62247
62249
62252
62255
62260
62262
62268
62276
62278
62304
62316
62319
62323
62325
62334
62366
62376
62399
62403
62419
62421
62431
62432
62433
62434
62435
62438
62448
62452
62488
62498
62500
62501
62514
62515
62525
62527
62528
62573
62579
62597
63642
63674
63741
63883
63902
63905
64007
64010
64031
64040
64041
64042
64071
64072
64077
64079
64097
64107
64108
64166
64170
64177
64178
64192
64193
64203
64207
64211
64213
64216
64217
64224
64229
64231
64260
64265
64269
64271
64278
64280
64384
64385
64387
64454
64470
64476
64479
64486
64495
64496
64500
64510
64518
64544
64547
64549
64552
64562
64587
64590
64591
64592
64594
64598
64601
64602
64603
64606
64610
64611
64616
64619
64620
64621
64623
64624
64625
64626
64636
64645
64647
64740
64958
64961
64969
64971
65002
65033
65083
65086
65143
65155
65157
65161
65187
65188
65208
65231
65232
65234
65235
65237
65240
65241
65242
65246
65253
65256
65262
65269
65272
65293
65348
65351
65361
65362
65365
65366
65368
65372
65373
65374
65377
65381
65383
65388
65389
65390
65395
65396
65400
65401
65405
65416
65418
65433
65453
65509
65515
65540
65542
65547
65549
65550
65552
65555
65558
65559
65563
65566
65570
65573
65581
65582
65627
65629
65635
65688
65690
65692
65695
65697
65700
65702
65703
65706
65707
65710
65711
65715
65718
65719
65726
65727
65731
65739
65742
65743
65744
65745
65746
65748
65749
65756
65758
65760
65764
65767
65774
65784
65787
65791
65792
65801
65803
65817
65818
65821
65842
65850
65853
65889
65893
65900
65901
65902
65903
65917
65950
65957
65979
66038
66039
66042
66048
66049
66051
66052
66054
66060
66074
66078
66080
66095
66179
66267
66274
66624
66755
66795
66812
66815
66877
66886
66891
66961
66971
66972
66982
67025
67033
67036
67057
67064
67066
67067
67068
67069
67081
67084
67088
67106
67128
67135
67137
67144
67147
67152
67155
67166
67170
67176
67177
67178
67179
67180
67182
67185
67186
67194
67195
67197
67217
67231
67233
67256
67261
67264
67265
67266
67267
67269
67272
67290
67295
67296
67297
67301
67308
67317
67318
67326
67328
67336
67348
67351
67354
67358
67359
67360
67366
67368
67370
67416
67418
67420
67424
67435
67437
67438
67439
67441
67443
67447
67448
67449
67450
67451
67452
67453
67455
67459
67460
67461
67468
67470
67474
67477
67480
67482
67486
67490
67495
67502
67503
67506
67507
67512
67518
67520
67521
67523
67524
67525
67527
67529
67530
67531
67532
67534
67539
67540
67545
67549
67552
67554
67555
67557
67561
67562
67565
67566
67568
67570
67571
67574
67576
67577
67579
67586
67596
67611
67614
67615
67616
67647
67659
67674
67679
67700
67705
67708
67712
67713
67722
67724
67747
67756
67763
67782
67786
67787
67793
67843
67856
67863
67869
67876
67877
67887
67894
67900
67912
67913
67915
67917
67931
67933
67935
67943
67983
67984
67991
67995
67997
67999
68002
68009
68011
68012
68013
68016
68018
68022
68026
68028
68029
68030
68034
68037
68048
68049
68051
68053
68054
68071
68072
68076
68077
68080
68083
68085
68086
68087
68091
68096
68097
68098
68099
68100
68123
68130
68138
68142
68145
68147
68151
68162
68165
68167
68168
68169
68177
68208
68209
68210
68216
68221
68222
68230
68235
68241
68243
68244
68245
68246
68296
68298
68320
68331
68334
68341
68344
68345
68367
68368
68377
68397
68422
68425
68444
68499
68510
68515
68522
68523
68524
68527
68532
68542
68544
68550
68559
68560
68563
68566
68568
68574
68579
68581
68584
68585
68589
68591
68592
68593
68595
68596
68602
68603
68604
68605
68606
68607
68611
68656
68658
68659
68660
68665
68666
68667
68668
68683
68692
68702
68703
68707
68710
68716
68724
68734
68747
68785
68812
68813
68815
68816
68818
68828
68830
68831
68832
68836
68838
68840
68841
68842
68843
68875
68876
68890
68902
68906
68914
68916
68930
68931
68933
68935
68937
68941
68947
68949
68953
69022
69023
69024
69025
69029
69031
69059
69069
69078
69080
69092
69103
69127
69144
69172
69177
69180
69189
69192
69193
69196
69197
69199
69201
69202
69203
69205
69206
69207
69208
69226
69239
69240
69241
69242
69266
69270
69271
69284
69285
69286
69288
69304
69305
69306
69308
69310
69343
69390
69402
69406
69407
69422
69425
69427
69431
69432
69437
69438
69439
69445
69447
69448
69451
69457
69459
69470
69471
69473
69490
69496
69499
69503
69507
69510
69511
69517
69518
69519
69586
69590
69602
69616
69619
69628
69629
69630
69631
69632
69668
69669
69677
69679
69681
69695
69696
69702
69709
69714
69715
69726
69728
69729
69730
69732
69733
69743
69747
69749
69753
69754
69755
69756
69763
69770
69771
69772
69781
69782
69783
69784
69789
69790
69791
69794
69798
69802
69803
69804
69805
69807
69810
69812
69813
69817
69820
69821
69830
69833
69838
69840
69841
69842
69851
69852
69854
69857
69864
69868
69870
69871
69915
69918
69922
69924
69925
69926
69927
69929
69930
69931
69939
69941
69942
69943
69944
69945
69949
69965
69996
[ 116 ]
30826
32082
34868
35333
36827
37041
37191
37376
37877
37926
38339
38414
40797
46434
47043
47064
47073
47091
47092
47114
47184
47188
47205
47264
47282
47283
47294
47300
47306
47307
47338
47371
47372
47373
47386
47393
47400
47416
47418
47419
47463
47496
50008
50010
50012
50015
50017
50031
50040
50057
50058
50059
50090
50128
50158
50163
50179
50183
50250
50279
50280
50286
50290
50292
50297
50304
50305
50309
50312
50314
50319
50321
50326
50328
50336
50340
50358
50366
50375
50398
50399
50417
50420
50438
50439
50440
50448
50450
50451
50467
50475
50476
50481
50492
50496
50503
50520
50532
50534
50561
50597
50598
50605
50611
50615
50633
50635
50637
50639
50658
50660
50664
50792
50794
50815
50818
50819
50824
50825
50832
50844
50861
50863
50869
50874
50886
50887
51008
51088
51094
51114
51124
51418
51863
51868
51871
51872
51873
51887
51904
51919
51922
51924
51940
51942
51943
51945
51960
51978
51981
51995
52007
52009
52013
52018
52020
52029
52034
52078
52079
52081
52082
52106
52993
53005
53040
53041
53078
53079
53088
53089
53092
53093
53094
53095
53107
53125
53143
53144
53148
53164
53176
53177
53182
53187
53188
53190
53191
53193
53198
53232
53235
53240
53241
53245
53253
53254
53289
53299
53314
53321
53380
53384
53389
53403
53441
53442
53443
53490
53516
53521
53522
53523
53526
53529
53556
53594
53648
53651
53692
53716
53717
53720
53863
53876
53909
53935
53948
53949
53959
53973
53982
53983
53997
54027
54037
54038
54050
54057
54060
54086
54104
54108
54110
54111
54117
54119
54123
54126
54128
54132
54135
54139
54160
54167
54171
54172
54176
54179
54180
54182
54190
54194
54195
54196
54216
54217
54259
54276
54278
54288
54317
54380
54382
54385
54391
54396
54397
54399
54401
54410
54413
54417
54425
54435
54448
54455
54459
54473
54476
54477
54478
54485
54496
54497
54499
54502
54505
54506
54512
54521
54524
54528
54530
54531
54535
54559
54564
54578
54582
54586
54589
54591
54593
54594
54599
54603
54604
54605
54610
54616
54618
54640
54641
54642
54664
54670
54671
54679
54681
54683
54697
54705
54706
54710
54713
54719
54723
54724
54726
54731
54761
54762
54763
54764
54770
54772
54783
54784
54786
54790
54791
54792
54795
54803
54832
54836
54847
54851
54859
54862
54867
54870
54880
54882
54885
54887
54888
54891
54892
54895
54916
54917
54918
54935
54957
54964
54976
54977
54985
54987
54991
54996
54997
55001
55009
55010
55011
55027
55030
55036
55038
55039
55041
55043
55044
55058
55064
55066
55067
55072
55078
55080
55088
55090
55093
55094
55097
55102
55103
55106
55109
55122
55123
55124
55126
55137
55142
55144
55150
55155
55165
55198
55201
55206
55209
55232
55234
55238
55246
55248
55250
55251
55253
55254
55257
55260
55262
55417
55457
55458
55473
55538
55539
55542
55543
55579
55637
55703
55705
55707
55712
55720
55723
55724
55726
55734
55735
55736
55738
55740
55741
55743
55747
55748
55752
55760
55761
55762
55763
55768
55769
55784
55788
55798
55802
55803
55804
55805
55807
55812
55813
55816
55817
55818
55820
55822
55827
55831
55835
55841
55847
55848
55850
55851
55856
55858
55867
55949
55953
55959
55963
56174
56182
56185
56196
56200
56201
56205
56206
56209
56210
56211
56212
56213
56216
56217
56219
56229
56231
56233
56235
56236
56237
56238
56260
56265
56274
56284
56288
56289
56296
56301
56303
56308
56312
56317
56324
56342
56351
56352
56353
56363
56367
56373
56378
56380
56392
56393
56396
56397
56398
56552
56558
56559
56560
56561
56600
56603
56683
56684
56685
56689
56695
56713
56714
56747
56749
56750
56751
56789
56794
56804
56813
56814
56817
56820
56821
56825
56827
56828
56834
56836
56838
56842
56844
56845
56846
56850
56851
56852
56862
56863
56875
56876
56880
56903
56906
56907
56908
56955
56983
56995
56997
56998
57005
57007
57012
57013
57047
57051
57067
57074
57075
57082
57094
57113
57127
57130
57131
57139
57140
57144
57147
57148
57149
57154
57157
57173
57187
57192
57212
57218
57222
57233
57256
57258
57264
57266
57269
57272
57277
57279
57280
57281
57303
57311
57313
57314
57333
57335
57409
57413
57449
57473
57572
57582
57612
57613
57620
57621
57624
57633
57657
57658
57711
57713
57718
57735
57740
57742
57751
57757
57764
57765
57766
57775
57776
57777
57787
57816
57835
57838
57846
57862
57868
57869
57898
57906
57911
57951
57952
57953
57981
58010
58017
58024
58066
58096
58097
58099
58106
58113
58127
58135
58141
58143
58144
58158
58160
58161
58162
58163
58165
58166
58168
58169
58173
58190
58191
58196
58197
58198
58208
58209
58210
58219
58227
58228
58232
58234
58255
58256
58257
58258
58259
58262
58269
58282
58294
58300
58301
58302
58303
58304
58307
58311
58313
58317
58318
58319
58339
58351
58355
58356
58359
58364
58370
58372
58373
58376
58380
58383
58386
58391
58392
58401
58403
58406
58408
58420
58421
58422
58423
58428
58429
58430
58432
58435
58438
58449
58452
58454
58532
58541
58545
58551
58552
58555
58557
58561
58563
58566
58586
58589
58689
58791
58794
58796
58920
58976
58985
58989
59412
59416
59427
59435
59439
59440
59441
59449
59452
59457
59460
59463
59464
59469
59473
59476
59487
59488
59491
59495
59497
59513
59519
59521
59524
59525
59528
59530
59531
59532
59542
59543
59563
59565
59570
59584
59589
59590
59597
59599
59601
59604
59606
59607
59608
59616
59617
59619
59620
59622
59632
59634
59637
59639
59641
59642
59643
59645
59647
59649
59651
59655
59656
59657
59662
59665
59672
59674
59675
59678
59679
59680
59682
59690
59712
60223
60296
60308
60309
60311
60312
60327
60329
60331
60332
60334
60336
60429
60445
60452
60461
60545
60547
60597
60599
60601
60608
60723
60778
60779
60787
60788
60790
60818
60937
60960
60961
60962
60965
60975
61010
61025
61028
61031
61034
61043
61044
61045
61052
61060
61880
61881
62174
62201
62203
62207
62217
62265
62266
62312
62490
62493
62503
62506
62512
62513
64034
64100
64169
64206
64219
64232
64233
64266
64431
64464
64494
64612
64628
65247
65248
65258
65270
65371
65393
65420
65658
65689
65694
65701
65708
65709
65713
65714
65720
65722
65723
65765
65777
65789
65798
65852
65855
65954
66045
67022
67023
67136
67153
67156
67158
67160
67162
67165
67167
67168
67171
67173
67175
67183
67276
67356
67357
67361
67362
67419
67423
67440
67467
67471
67472
67501
67516
67517
67528
67546
67558
67563
67564
67590
67671
67707
67710
67748
67765
67985
67986
67987
67989
67992
67994
68003
68004
68005
68006
68010
68020
68025
68031
68036
68050
68057
68058
68059
68061
68063
68064
68065
68066
68068
68069
68070
68079
68116
68295
68297
68363
68391
68583
68663
68669
68677
68678
68679
68834
68837
68905
69066
69122
69185
69186
69191
69195
69198
69287
69332
69333
69423
69433
69441
69442
69444
69641
69708
69727
69742
69752
69757
69759
69792
69795
69799
69815
69818
69850
69921
69933
69935
69940
69946
69947
69948
[ 117 ]
36344
37942
38313
38320
39853
40718
41562
47041
47044
47045
47116
47120
47136
47139
47187
47207
47208
47221
47284
47293
47343
47387
47389
47390
47391
47394
47413
47420
47421
47422
47423
47462
47465
47469
47472
47474
47475
47488
47489
47493
50013
50054
50062
50115
50120
50159
50178
50223
50278
50296
50303
50308
50310
50327
50355
50357
50365
50368
50385
50401
50436
50466
50470
50480
50482
50486
50493
50499
50514
50515
50517
50518
50521
50528
50530
50531
50538
50608
50609
50610
50623
50632
50649
50672
50800
50822
50835
50840
50875
51051
51056
51058
51131
51132
51133
51405
51417
51423
51865
51867
51874
51882
51884
51935
51937
51938
51939
51946
51956
51958
51997
51998
52008
52014
52023
52025
52028
52032
52033
52036
52085
52086
52585
53016
53020
53030
53036
53042
53046
53061
53062
53063
53083
53084
53126
53142
53151
53154
53165
53172
53173
53178
53179
53180
53181
53186
53195
53200
53204
53205
53206
53208
53214
53222
53225
53256
53288
53293
53301
53322
53325
53334
53337
53343
53345
53363
53387
53396
53397
53405
53406
53409
53416
53418
53421
53424
53428
53481
53484
53503
53504
53511
53512
53514
53515
53524
53525
53528
53535
53545
53593
53600
53607
53633
53635
53643
53649
53679
53681
53691
53718
53755
53759
53771
53772
53774
53800
53828
53829
53864
53865
53867
53871
53872
53873
53875
53945
53950
53951
53962
53968
53969
53976
53977
53978
53980
53987
53988
53989
53995
54008
54011
54013
54014
54018
54023
54024
54029
54031
54036
54051
54052
54053
54056
54059
54075
54077
54084
54087
54094
54095
54097
54103
54116
54125
54131
54137
54146
54147
54152
54153
54159
54162
54169
54174
54178
54181
54183
54184
54186
54188
54201
54208
54218
54219
54243
54254
54260
54265
54271
54273
54274
54297
54299
54303
54307
54308
54312
54318
54325
54326
54330
54333
54335
54345
54347
54352
54354
54359
54360
54361
54364
54369
54370
54374
54375
54376
54377
54378
54379
54381
54386
54387
54389
54400
54403
54411
54415
54416
54434
54436
54454
54460
54461
54482
54483
54486
54487
54492
54495
54498
54501
54508
54532
54533
54537
54538
54539
54540
54542
54543
54546
54549
54550
54574
54577
54579
54580
54585
54588
54590
54595
54597
54598
54608
54613
54627
54632
54633
54638
54639
54643
54644
54645
54650
54651
54653
54673
54682
54684
54691
54700
54704
54707
54751
54752
54759
54769
54776
54781
54785
54787
54789
54793
54831
54833
54841
54844
54845
54846
54850
54853
54858
54860
54861
54863
54869
54871
54872
54874
54876
54877
54879
54883
54884
54905
54910
54911
54914
54915
54919
54920
54922
54929
54932
54936
54939
54940
54941
54943
54946
54966
54969
54972
54973
54974
54978
54980
54984
54986
54990
54994
55003
55008
55012
55016
55020
55024
55026
55028
55029
55040
55042
55052
55056
55060
55063
55070
55073
55075
55079
55083
55084
55086
55087
55091
55092
55112
55118
55120
55127
55130
55141
55145
55148
55152
55156
55160
55181
55183
55185
55186
55187
55189
55193
55195
55199
55202
55214
55216
55217
55227
55233
55235
55237
55258
55259
55264
55468
55714
55715
55716
55718
55719
55725
55737
55749
55755
55756
55758
55759
55774
55780
55785
55786
55789
55799
55810
55811
55815
55821
55823
55824
55852
55854
55958
56198
56222
56230
56280
56282
56283
56286
56290
56291
56294
56295
56305
56307
56310
56311
56318
56319
56322
56323
56335
56344
56354
56355
56358
56360
56362
56366
56368
56369
56377
56381
56382
56395
56400
56401
56404
56405
56415
56423
56432
56467
56469
56545
56546
56549
56551
56555
56565
56571
56573
56574
56599
56601
56602
56628
56667
56678
56679
56680
56681
56686
56690
56696
56697
56707
56710
56752
56754
56757
56758
56760
56765
56786
56802
56803
56807
56811
56822
56823
56826
56829
56830
56832
56833
56841
56843
56853
56865
56866
56867
56870
56878
56879
56884
56887
56893
56896
56956
56992
57008
57009
57010
57017
57029
57030
57031
57045
57054
57055
57056
57063
57064
57068
57077
57078
57080
57083
57089
57092
57095
57096
57099
57111
57125
57126
57137
57158
57164
57166
57167
57168
57169
57185
57186
57189
57190
57205
57217
57232
57247
57254
57259
57263
57283
57291
57300
57305
57307
57312
57315
57322
57324
57325
57326
57327
57330
57337
57338
57343
57345
57405
57438
57472
57475
57568
57574
57576
57577
57580
57583
57588
57602
57611
57614
57615
57616
57619
57622
57626
57627
57653
57659
57666
57670
57705
57707
57709
57712
57716
57717
57719
57720
57721
57722
57725
57729
57731
57732
57733
57736
57737
57743
57752
57760
57772
57774
57779
57780
57784
57786
57788
57793
57798
57804
57806
57810
57812
57813
57820
57823
57826
57828
57831
57845
57863
57872
57874
57875
57883
57885
57887
57889
57899
57900
57908
57909
57928
57949
57965
57968
57971
57972
57978
57987
57991
57998
58002
58009
58098
58104
58116
58123
58129
58130
58134
58137
58138
58142
58145
58147
58149
58153
58154
58156
58157
58167
58170
58174
58175
58177
58182
58187
58189
58194
58203
58207
58216
58221
58224
58229
58230
58235
58238
58251
58253
58254
58263
58264
58267
58296
58297
58299
58308
58309
58314
58315
58321
58324
58325
58332
58333
58334
58336
58337
58341
58349
58353
58357
58360
58361
58365
58366
58367
58374
58381
58382
58384
58385
58388
58393
58394
58399
58400
58402
58405
58410
58413
58418
58419
58425
58426
58433
58436
58439
58441
58442
58443
58447
58448
58450
58451
58534
58544
58547
58554
58559
58568
58793
58795
58977
58978
58979
58980
58981
58982
58983
58984
58987
58988
59418
59419
59420
59436
59438
59442
59446
59450
59455
59461
59466
59467
59472
59474
59477
59482
59489
59490
59493
59494
59498
59507
59520
59523
59526
59527
59541
59571
59582
59593
59594
59595
59602
59603
59605
59614
59621
59646
59650
59654
59659
59661
59664
59666
59668
59670
59685
60211
60302
60305
60315
60319
60333
60337
60447
60548
60551
60552
60574
60576
60582
60583
60586
60590
60595
60603
60613
60616
60627
60628
60638
60639
60641
60645
60651
60657
60661
60665
60676
60727
60728
60729
60733
60772
60774
60776
60780
60782
60794
60963
60977
60979
60983
60992
61004
61005
61007
61019
61021
61027
61029
61032
61036
61038
61039
61041
61048
61050
61277
62213
62216
62420
64230
67161
67172
68007
68027
68067
68670
68672
68674
68676
69194
69436
69440
69932
69934
[ 118 ]
37036
38340
47042
47174
47176
47189
47190
47191
47206
47255
47365
47435
47457
47460
47461
47464
47468
47473
50056
50300
50302
50307
50452
50453
50454
50455
50483
50497
50498
50504
50511
50613
50618
50630
50665
50798
50842
50846
50853
50873
50879
51052
51134
51546
51881
51909
52027
52089
52101
52102
52122
52128
52129
52146
52385
52392
52486
52567
52570
52760
52927
52984
53009
53011
53033
53039
53043
53044
53059
53066
53069
53076
53077
53110
53116
53123
53124
53127
53130
53134
53135
53136
53149
53167
53171
53189
53199
53207
53209
53210
53211
53213
53215
53216
53217
53218
53221
53226
53230
53246
53247
53250
53251
53267
53286
53292
53298
53303
53329
53331
53339
53360
53381
53398
53399
53408
53412
53423
53438
53467
53477
53482
53483
53494
53500
53530
53536
53537
53542
53544
53548
53549
53551
53552
53553
53554
53555
53559
53591
53592
53596
53601
53609
53612
53615
53637
53641
53642
53644
53650
53652
53654
53668
53669
53672
53687
53693
53715
53724
53726
53731
53738
53739
53740
53746
53748
53757
53775
53799
53802
53804
53817
53826
53827
53850
53859
53868
53877
53878
53883
53886
53895
53910
53911
53912
53937
53944
53946
53952
53953
53956
53958
53967
53975
53986
53990
53994
54001
54004
54006
54009
54012
54015
54016
54021
54022
54035
54055
54058
54062
54064
54071
54076
54081
54085
54089
54090
54092
54096
54098
54115
54120
54124
54127
54140
54141
54142
54149
54158
54161
54163
54168
54175
54177
54185
54187
54189
54192
54202
54210
54212
54221
54222
54223
54224
54225
54234
54235
54237
54238
54241
54244
54247
54251
54252
54258
54264
54266
54281
54286
54287
54291
54292
54293
54294
54295
54296
54305
54309
54310
54315
54316
54324
54328
54329
54331
54334
54336
54353
54355
54356
54357
54363
54392
54395
54414
54456
54457
54462
54464
54471
54474
54534
54541
54544
54545
54547
54554
54555
54556
54560
54581
54583
54587
54596
54602
54620
54630
54631
54646
54647
54648
54649
54654
54656
54657
54658
54660
54665
54666
54667
54668
54669
54672
54675
54676
54677
54685
54688
54689
54695
54699
54702
54709
54711
54712
54714
54749
54753
54758
54788
54837
54848
54854
54873
54894
54904
54906
54907
54908
54909
54912
54921
54925
54927
54930
54931
54934
54944
54947
54952
54967
54975
54981
54992
54995
55021
55032
55034
55045
55053
55057
55061
55081
55121
55138
55153
55167
55168
55170
55172
55173
55174
55175
55176
55190
55191
55194
55204
55208
55210
55211
55213
55255
55263
55745
55757
55809
55819
56221
56279
56292
56315
56316
56346
56350
56365
56383
56390
56391
56416
56418
56428
56429
56435
56463
56465
56468
56481
56523
56528
56548
56553
56554
56557
56562
56563
56564
56566
56569
56572
56575
56576
56578
56579
56585
56586
56590
56593
56594
56596
56597
56630
56633
56636
56638
56642
56643
56649
56663
56664
56669
56671
56672
56673
56676
56698
56704
56706
56753
56755
56795
56796
56835
56864
56871
56873
56874
56877
56881
56886
56895
56897
56899
56900
56902
56984
56991
56993
56996
57021
57022
57023
57028
57034
57035
57036
57043
57052
57057
57069
57085
57087
57100
57101
57105
57107
57112
57114
57120
57121
57151
57153
57155
57156
57159
57160
57161
57162
57165
57174
57191
57195
57203
57207
57210
57211
57213
57224
57229
57237
57238
57243
57244
57245
57246
57248
57249
57251
57253
57260
57288
57292
57293
57295
57297
57304
57306
57308
57309
57316
57317
57318
57319
57321
57328
57340
57344
57381
57399
57400
57428
57432
57436
57446
57460
57467
57470
57474
57476
57495
57496
57511
57523
57526
57548
57550
57567
57571
57586
57593
57595
57603
57618
57623
57631
57660
57667
57673
57675
57695
57706
57708
57710
57714
57715
57723
57727
57728
57738
57741
57748
57754
57767
57782
57783
57785
57789
57791
57797
57799
57814
57821
57822
57824
57825
57829
57830
57837
57839
57841
57843
57844
57850
57851
57852
57859
57860
57861
57864
57865
57866
57867
57870
57871
57873
57878
57880
57884
57888
57897
57912
57915
57917
57918
57920
57924
57932
57939
57940
57950
57957
57958
57969
57970
57973
57977
57979
57988
57990
57993
57994
58003
58102
58107
58108
58109
58110
58118
58121
58124
58126
58128
58136
58146
58150
58172
58200
58220
58233
58248
58249
58250
58310
58320
58330
58335
58338
58340
58342
58343
58344
58345
58346
58358
58396
58397
58398
58411
58424
58444
58446
58453
58546
58792
59458
59462
59475
59478
59479
59522
59581
59583
59598
59600
59609
59611
59615
59618
59636
59640
59658
59660
59663
60205
60206
60314
60335
60549
60555
60556
60557
60558
60562
60569
60575
60577
60581
60585
60588
60591
60592
60602
60604
60610
60614
60629
60630
60634
60643
60644
60647
60648
60649
60653
60655
60658
60668
60670
60673
60674
60675
60677
60684
60690
60698
60714
60724
60725
60726
60735
60740
60744
60755
60761
60767
60773
60786
60978
60982
60989
61008
61009
61012
61013
61016
61026
61037
61057
69443
[ 119 ]
47175
47179
47180
47424
47434
47440
47441
47443
47454
47455
47459
47491
50055
50117
50119
50311
50519
50657
50804
50827
50829
50872
51910
51911
52026
52090
52100
52120
52124
52207
52237
52269
52283
52384
52388
52394
52397
52406
52423
52432
52465
52469
52487
52488
52565
52575
52584
52586
52590
52591
52595
52732
52733
52896
52946
52980
53010
53014
53029
53034
53035
53045
53047
53049
53053
53060
53068
53072
53073
53074
53075
53111
53112
53113
53115
53117
53120
53121
53129
53131
53137
53138
53139
53140
53141
53150
53166
53168
53170
53201
53220
53227
53248
53272
53275
53276
53282
53283
53300
53305
53309
53326
53328
53371
53427
53429
53431
53444
53449
53459
53470
53474
53476
53478
53480
53485
53487
53491
53493
53498
53499
53527
53532
53539
53540
53543
53577
53589
53597
53598
53602
53603
53604
53605
53619
53626
53630
53647
53673
53674
53685
53719
53725
53727
53733
53741
53745
53747
53750
53754
53756
53761
53762
53765
53767
53773
53776
53778
53786
53787
53796
53798
53807
53825
53830
53832
53833
53851
53852
53853
53856
53858
53869
53870
53879
53880
53887
53894
53907
53913
53914
53915
53917
53918
53925
53927
53932
53933
53934
53938
53941
53961
53963
53965
53972
53993
54000
54005
54019
54032
54039
54041
54069
54072
54073
54078
54080
54088
54091
54130
54134
54151
54154
54205
54207
54226
54227
54228
54230
54231
54232
54236
54239
54245
54253
54257
54267
54269
54280
54284
54300
54311
54314
54319
54337
54340
54341
54342
54348
54349
54351
54358
54393
54398
54458
54463
54465
54468
54475
54491
54553
54584
54607
54614
54623
54625
54626
54628
54629
54635
54636
54663
54674
54686
54687
54692
54693
54694
54696
54701
54718
54742
54744
54748
54750
54755
54757
54849
54924
54949
54951
54954
54956
54965
54970
54982
55000
55005
55031
55046
55048
55062
55132
55146
55161
55166
55171
55178
55182
55203
55226
56345
56386
56388
56403
56417
56421
56430
56431
56441
56452
56478
56480
56494
56526
56527
56544
56577
56582
56584
56589
56591
56592
56606
56608
56609
56618
56622
56629
56631
56635
56644
56645
56651
56652
56654
56656
56662
56675
56677
56691
56692
56693
56699
56700
56702
56705
56708
56745
56868
56869
56872
57014
57016
57037
57041
57042
57046
57060
57079
57081
57103
57104
57106
57123
57171
57175
57179
57180
57182
57184
57197
57198
57200
57201
57204
57208
57216
57220
57226
57227
57228
57231
57234
57235
57242
57250
57287
57294
57296
57302
57320
57329
57339
57341
57348
57352
57356
57358
57391
57395
57401
57402
57404
57406
57407
57410
57416
57422
57423
57424
57430
57431
57437
57441
57442
57444
57447
57450
57453
57455
57462
57463
57465
57466
57468
57469
57471
57481
57482
57483
57484
57491
57499
57502
57503
57504
57514
57521
57528
57537
57541
57542
57543
57544
57546
57547
57552
57575
57605
57606
57607
57608
57617
57628
57630
57650
57654
57656
57665
57668
57671
57681
57683
57684
57689
57696
57698
57700
57724
57726
57730
57739
57749
57750
57769
57773
57792
57794
57795
57800
57801
57803
57805
57819
57848
57849
57856
57857
57947
57956
57964
57966
57967
58114
58119
58120
58245
58246
58252
58322
58354
58455
58463
58479
59573
59575
59579
59612
59613
59652
60550
60553
60564
60566
60567
60570
60571
60587
60615
60621
60624
60625
60633
60654
60662
60666
60667
60669
60685
60687
60688
60699
60700
60702
60704
60719
60742
60749
60752
60762
60765
60768
60771
60777
60964
60980
60988
61011
61014
61015
61017
[ 120 ]
47426
47429
47430
47436
47445
47458
47477
47478
50118
52091
52094
52096
52098
52105
52117
52121
52126
52127
52130
52131
52132
52133
52148
52178
52179
52182
52208
52228
52229
52232
52238
52240
52265
52273
52274
52286
52295
52346
52358
52382
52383
52389
52393
52403
52425
52431
52467
52472
52473
52481
52484
52492
52496
52497
52507
52508
52513
52564
52566
52568
52571
52572
52576
52577
52588
52589
52594
52596
52604
52623
52633
52647
52703
52706
52710
52717
52719
52725
52728
52729
52735
52742
52757
52759
52763
52774
52802
52904
52905
52929
52982
53023
53024
53026
53027
53028
53038
53052
53108
53114
53118
53132
53133
53169
53202
53203
53231
53281
53285
53307
53430
53432
53445
53446
53450
53451
53453
53458
53460
53466
53469
53475
53479
53488
53492
53496
53497
53533
53534
53541
53547
53561
53567
53570
53572
53578
53588
53595
53608
53611
53629
53638
53639
53645
53653
53658
53659
53675
53678
53682
53696
53698
53704
53710
53713
53714
53729
53730
53732
53737
53744
53749
53753
53770
53777
53781
53794
53806
53808
53813
53814
53818
53820
53822
53823
53835
53849
53855
53857
53881
53884
53888
53890
53892
53908
53916
53919
53930
53931
53939
53955
53964
54020
54063
54079
54233
54242
54263
54268
54270
54282
54283
54285
54338
54343
54372
54394
54469
54470
54690
54745
54747
54928
54953
54955
56384
56385
56412
56414
56420
56424
56425
56427
56436
56443
56457
56458
56461
56462
56464
56476
56489
56490
56500
56508
56514
56524
56525
56530
56543
56580
56581
56583
56587
56588
56607
56615
56620
56621
56623
56624
56625
56639
56640
56641
56646
56658
56661
56666
56668
56756
56797
57025
57058
57065
57102
57115
57117
57176
57177
57178
57183
57188
57214
57215
57219
57225
57236
57239
57241
57284
57286
57289
57355
57370
57371
57386
57389
57390
57392
57393
57394
57396
57398
57403
57412
57415
57417
57429
57443
57445
57454
57456
57478
57486
57487
57506
57507
57513
57516
57524
57532
57534
57535
57536
57545
57549
57604
57640
57643
57644
57682
57687
57690
57694
57699
57701
57702
57771
57802
57808
57815
57854
57858
57925
57929
58148
58152
58239
58243
58460
58461
59577
60560
60572
60573
60584
60632
60640
60679
60696
60703
60753
60754
60766
60769
[ 121 ]
47439
47452
47453
47476
50801
50802
50828
52118
52134
52135
52136
52137
52144
52145
52150
52151
52176
52205
52206
52210
52211
52212
52213
52231
52235
52239
52266
52270
52296
52300
52307
52339
52353
52376
52390
52395
52398
52404
52407
52417
52434
52456
52464
52468
52470
52474
52480
52485
52490
52494
52495
52499
52501
52511
52514
52532
52552
52583
52587
52592
52593
52597
52601
52603
52607
52613
52619
52620
52625
52631
52632
52639
52646
52659
52660
52673
52677
52678
52681
52688
52709
52714
52715
52718
52720
52722
52731
52746
52749
52761
52765
52766
52767
52769
52785
52791
52808
52812
52817
52888
52897
52903
52931
53012
53013
53051
53426
53456
53464
53510
53538
53564
53565
53568
53576
53583
53585
53624
53625
53646
53656
53657
53662
53663
53667
53676
53688
53689
53694
53697
53699
53700
53735
53743
53751
53764
53769
53791
53792
53793
53810
53816
53819
53831
53834
53836
53837
53841
53896
53897
53904
53905
53906
53920
53924
54322
54339
54373
54746
56439
56440
56442
56445
56446
56447
56449
56450
56474
56477
56483
56484
56485
56493
56496
56497
56498
56506
56516
56517
56531
56532
56533
56614
56616
56617
56619
56659
56660
56701
56800
57118
57119
57240
57298
57301
57347
57350
57351
57353
57354
57360
57365
57366
57375
57379
57387
57411
57414
57421
57425
57458
57479
57485
57488
57490
57492
57519
57531
57538
57539
57597
57639
57686
57691
57692
57693
57768
57770
57790
57796
58240
58244
58458
58462
59574
60622
60697
60712
60745
60763
[ 122 ]
47479
52095
52097
52111
52115
52123
52138
52158
52183
52199
52201
52215
52216
52217
52218
52226
52230
52241
52263
52264
52275
52288
52293
52301
52305
52309
52312
52316
52321
52323
52331
52332
52333
52334
52335
52338
52341
52352
52354
52357
52379
52381
52396
52420
52435
52437
52457
52460
52461
52462
52476
52498
52502
52503
52506
52512
52520
52543
52555
52557
52560
52562
52563
52574
52579
52598
52602
52608
52609
52610
52614
52616
52617
52627
52630
52652
52655
52668
52669
52670
52671
52672
52674
52675
52676
52679
52680
52682
52683
52685
52687
52694
52711
52713
52723
52724
52726
52727
52734
52736
52737
52738
52739
52740
52741
52743
52748
52750
52758
52768
52770
52772
52777
52781
52789
52790
52797
52798
52804
52816
52818
52821
52832
52877
52878
52883
52893
52894
52900
52909
52915
53025
53278
53455
53575
53584
53586
53661
53666
53703
53705
53706
53708
53709
53711
53712
53736
53768
53783
53788
53812
53815
53838
53842
53846
53854
53900
53902
53903
53928
53929
54320
54323
56408
56409
56410
56411
56426
56451
56456
56460
56472
56473
56475
56499
56503
56505
56507
56509
56511
56512
56513
56519
56534
56650
57361
57362
57363
57369
57385
57388
57419
57420
57448
57477
57508
57679
57688
57697
58241
58456
60750
[ 123 ]
47446
47448
52139
52140
52153
52154
52156
52160
52162
52167
52168
52173
52174
52192
52197
52214
52219
52233
52242
52245
52251
52257
52261
52271
52292
52302
52304
52306
52314
52319
52320
52322
52328
52337
52343
52356
52362
52363
52365
52367
52371
52372
52373
52375
52427
52438
52440
52443
52447
52451
52459
52475
52500
52509
52518
52524
52525
52534
52537
52541
52542
52544
52546
52549
52550
52551
52553
52558
52559
52580
52599
52606
52612
52621
52628
52643
52644
52645
52648
52651
52654
52656
52662
52663
52666
52684
52686
52692
52698
52699
52701
52745
52747
52756
52773
52779
52783
52786
52794
52799
52805
52807
52810
52831
52836
52837
52838
52839
52868
52872
52879
52881
52898
52901
52907
52916
52917
53454
53462
53562
53664
53701
53707
53734
53752
53821
53839
53840
53848
53921
53922
56448
56488
56501
56504
56510
56521
56536
56537
56540
[ 124 ]
52155
52157
52166
52169
52188
52190
52193
52224
52225
52252
52253
52254
52255
52289
52290
52291
52317
52324
52329
52330
52340
52348
52355
52360
52361
52369
52370
52380
52418
52436
52442
52444
52445
52446
52448
52450
52493
52504
52516
52517
52526
52527
52539
52540
52547
52548
52556
52600
52611
52615
52635
52638
52650
52664
52665
52690
52691
52693
52696
52775
52776
52782
52784
52792
52800
52801
52806
52819
52820
52835
52845
52848
52852
52870
52882
53785
53811
53844
56535
[ 125 ]
52159
52161
52170
52172
52244
52250
52259
52326
52350
52351
52409
52415
52535
52538
52634
52636
52637
52649
52695
52697
52787
52849
52851
52853
52854
52855
52860
52866
52867
52874
52920
53580
53843
56538
[ 126 ]
52203
52258
52523
52531
52536
52843
52846
52847
52856
52862
56539
[ 130 ]
9208
12358
[ 131 ]
4356
8861
8978
10759
11432
11434
11726
12094
12355
[ 132 ]
4302
4304
4344
4361
4362
4550
8727
8813
8827
8966
8977
9193
9210
9211
9212
9215
10219
10220
10225
10293
10756
10757
10887
10891
10993
10994
11414
11415
11438
11441
11672
11673
11725
11735
11736
11737
11862
11865
11974
12097
12172
12173
12285
12335
12341
12345
12349
12351
12357
17093
[ 133 ]
4298
4301
4305
4335
4339
4340
4341
4342
4343
4350
4351
4354
4355
4401
4407
4555
6217
8811
8814
8816
8818
8829
8860
8967
9194
9196
9909
10085
10221
10222
10229
10244
10254
10292
10295
10642
10755
10760
10769
10782
10804
10825
10826
10888
10973
10989
10992
11043
11411
11428
11433
11435
11436
11443
11447
11642
11646
11661
11706
11724
11727
11738
11780
11835
11910
11976
12028
12047
12072
12087
12103
12162
12166
12186
12252
12254
12281
12315
12316
12321
12322
12327
12340
12348
12385
12448
12450
12451
12453
12455
12462
12467
12480
12481
12482
15281
16796
20375
20376
20377
20401
22012
[ 134 ]
4082
4086
4296
4300
4306
4328
4332
4333
4346
4348
4349
4352
4353
4358
4378
4410
4416
4561
5455
5461
5898
5934
6186
6209
6218
6219
6221
6236
6306
8770
8804
8812
8857
10069
10082
10086
10092
10199
10205
10224
10230
10231
10237
10245
10248
10255
10267
10281
10640
10646
10762
10763
10766
10768
10770
10774
10778
10824
10827
10844
10845
10847
10853
10890
10935
10944
10996
11044
11045
11072
11413
11416
11423
11424
11427
11430
11444
11446
11450
11451
11536
11540
11541
11594
11631
11632
11644
11649
11653
11664
11670
11674
11678
11691
11694
11700
11705
11713
11723
11739
11786
11827
11831
11839
11840
11945
11988
11997
12013
12056
12109
12118
12163
12176
12193
12196
12200
12232
12249
12259
12261
12289
12303
12314
12320
12328
12332
12334
12339
12344
12375
12389
12393
12485
12491
12500
12504
12508
12571
12601
13105
13107
14184
14217
14255
14256
14279
14282
14509
14552
15282
16911
16912
17016
17091
17092
19233
19240
19967
20378
20379
20485
20593
21389
21417
21705
21811
21812
51678
[ 135 ]
4284
4320
4321
4324
4325
4327
4330
4392
5403
5405
5447
5449
5463
5626
5629
5630
5633
5634
5732
5800
5802
5805
5901
5903
5933
5935
5944
5946
5952
5960
6141
6142
6149
6150
6152
6172
6180
6181
6183
6188
6190
6191
6196
6215
6216
6233
6234
6235
6238
6241
6242
6269
6270
6271
6367
6368
8760
8796
8808
8968
8969
8971
9465
9906
9907
10100
10160
10161
10208
10214
10215
10232
10233
10242
10243
10247
10251
10252
10253
10259
10268
10270
10279
10300
10311
10483
10648
10652
10689
10709
10764
10765
10773
10776
10805
10848
10850
10859
10897
10902
10904
10905
10906
10946
10951
10956
11023
11040
11046
11048
11405
11417
11421
11422
11429
11452
11454
11509
11520
11524
11526
11529
11531
11533
11535
11539
11543
11544
11558
11559
11589
11591
11592
11596
11599
11601
11627
11628
11633
11635
11636
11637
11639
11651
11656
11689
11702
11710
11714
11747
11750
11753
11817
11887
11901
11920
11939
11948
11955
12001
12012
12021
12033
12038
12105
12108
12114
12116
12133
12136
12238
12265
12313
12319
12388
12400
12439
12443
12446
12488
12489
12492
12497
12507
12560
12567
12921
12958
14085
14115
14116
14117
14185
14186
14211
14214
14220
14242
14244
14247
14262
14278
14327
14331
14644
15268
15269
15271
15275
15279
15283
15285
15326
15333
15405
15406
15952
15953
15956
15975
16800
16910
16913
16916
16940
16941
17014
17015
17090
17309
17314
17605
17606
18074
18080
18086
18099
18225
18227
18233
18790
19232
19242
19266
19267
19310
19961
19962
19964
19973
19985
20012
20013
20015
20360
20408
20417
20418
20430
20467
20491
20500
20518
20530
20552
20555
20571
20572
20596
20597
20600
21391
21477
21478
21516
21639
21702
21707
21716
21736
21804
21810
21988
22006
22010
22594
[ 136 ]
4087
4171
4177
4178
4179
4208
4209
4215
4216
4278
4281
4309
4319
4322
4323
4326
4329
4386
4510
4668
4775
5442
5483
5484
5485
5651
5655
5657
5705
5733
5735
5745
5746
5762
5765
5894
5908
5920
5932
5941
5953
5956
6058
6157
6167
6170
6171
6175
6177
6182
6184
6194
6195
6201
6203
6205
6207
6208
6213
6224
6225
6226
6227
6228
6229
6230
6231
6239
6244
6265
6268
6273
6281
6291
6292
6302
6307
6310
6363
6438
6473
8802
8803
8970
9444
9455
9466
9467
9491
9493
9506
9508
9513
9516
9520
10067
10071
10101
10131
10132
10138
10139
10141
10151
10194
10197
10217
10235
10238
10284
10303
10310
10312
10314
10323
10485
10637
10639
10644
10649
10656
10658
10692
10699
10767
10900
10952
11027
11037
11047
11049
11067
11068
11070
11071
11098
11099
11101
11105
11133
11321
11455
11458
11510
11511
11512
11528
11537
11538
11553
11555
11571
11579
11584
11587
11590
11605
11629
11638
11719
11733
11938
11964
11992
12034
12141
12236
12277
12392
12442
12447
12484
12487
12494
12510
12552
12559
12572
12600
12602
12608
13004
14084
14111
14120
14121
14123
14193
14204
14205
14209
14215
14222
14230
14234
14236
14238
14268
14269
14272
14329
14820
14934
14969
15001
15063
15067
15068
15254
15255
15261
15272
15273
15276
15284
15315
15328
15331
15336
15388
15398
15399
15404
15407
15861
15862
15950
15951
15962
15967
15974
16030
16129
16130
16906
16907
16908
16915
16918
16920
16923
16927
16930
16931
16932
16935
16942
16986
16987
17013
17028
17307
17316
17386
17603
18070
18083
18084
18096
18207
18216
18222
18224
18226
18228
18231
18250
18781
18806
18812
18890
18976
19133
19225
19235
19259
19260
19278
19280
19540
19879
19932
19933
19941
19956
19959
19965
19968
19971
19972
19975
20014
20017
20019
20022
20132
20365
20385
20400
20407
20416
20426
20428
20444
20495
20528
20531
20532
20537
20538
20539
20557
20575
20588
20601
20625
21026
21248
21249
21368
21372
21415
21442
21463
21468
21479
21533
21575
21665
21672
21706
21709
21710
21713
21714
21737
21739
21740
21774
21807
21808
21819
21971
21991
21992
22056
22306
22314
22335
22460
22461
22580
22593
51260
51679
[ 137 ]
3838
4035
4039
4064
4097
4168
4169
4206
4214
4286
4288
4307
4308
4310
4315
4669
4689
4697
4700
4825
5433
5452
5464
5469
5470
5471
5474
5476
5487
5505
5506
5524
5525
5574
5596
5597
5605
5606
5611
5613
5622
5624
5627
5664
5672
5691
5692
5693
5725
5730
5734
5736
5737
5738
5743
5744
5764
5774
5778
5812
5900
5904
5909
5910
5921
5922
5923
5925
5927
5954
5961
6056
6143
6153
6159
6162
6164
6166
6169
6173
6174
6176
6212
6258
6259
6260
6263
6264
6267
6272
6275
6278
6280
6282
6286
6290
6293
6300
6303
6304
6309
6362
6380
6441
9457
9463
9499
9509
9522
10122
10130
10156
10157
10163
10188
10202
10210
10211
10212
10213
10234
10241
10272
10305
10796
11032
11033
11059
11062
11319
11462
11504
11525
11552
11554
11556
11561
11567
11575
11576
11582
11583
11602
11614
11619
11630
11933
11936
11998
12237
12244
12549
12555
12563
12575
12584
12605
12643
12645
12664
12853
12920
13766
14112
14122
14192
14196
14202
14206
14212
14237
14249
14264
14271
14274
14275
14292
14294
14297
14311
14347
14353
14649
14815
14816
14817
14818
14819
14906
14931
14946
14947
14950
14961
14966
14968
14998
14999
15000
15062
15066
15069
15082
15088
15089
15245
15257
15260
15266
15278
15286
15287
15313
15314
15316
15330
15334
15343
15345
15390
15397
15400
15402
15455
15941
15948
15957
15963
15966
15969
15977
16032
16033
16035
16036
16037
16085
16122
16123
16124
16139
16853
16909
16914
16919
16924
16925
16929
16933
16934
16936
16939
16944
16975
16976
16977
16978
16984
16991
17012
17085
17089
17294
17310
17311
17322
17328
17330
17332
17335
17387
17599
18101
18210
18218
18223
18234
18772
18779
18786
18832
18875
18941
18960
18978
19139
19144
19148
19149
19150
19199
19202
19261
19275
19281
19282
19534
19914
19935
19947
19954
19958
19974
19977
19984
20021
20119
20120
20125
20167
20171
20174
20333
20334
20392
20406
20410
20437
20440
20452
20499
20536
20569
20635
20636
20639
20650
20694
21160
21161
21176
21177
21178
21196
21201
21202
21212
21250
21306
21353
21367
21416
21445
21456
21462
21475
21535
21542
21555
21611
21612
21650
21663
21666
21685
21698
21711
21728
21738
21784
21799
22029
22050
22054
22055
22059
22092
22093
22096
22136
22137
22334
22469
22566
22572
22573
22575
22581
22582
22583
22587
22591
22937
23313
28750
28751
28753
51682
51719
51728
51729
[ 138 ]
4110
4210
4213
4693
4826
4879
4963
5247
5467
5513
5523
5530
5532
5552
5556
5573
5590
5598
5604
5623
5649
5653
5663
5694
5721
5813
5825
5833
5850
5868
5875
5912
5913
5916
6161
6168
6198
6245
6246
6247
6248
6254
6257
6261
6276
6279
6283
6284
6285
6287
6288
6294
6359
6361
6370
6373
6387
6440
6459
8336
8400
8401
8402
8406
8412
10140
10304
10487
11092
11461
11562
11563
11613
11930
12511
12516
12520
12573
12576
12586
12589
12606
12607
12666
12799
12806
12887
12974
13759
14041
14083
14188
14200
14201
14265
14285
14291
14295
14317
14339
14340
14357
14645
14663
14802
14813
14886
14889
14890
14891
14909
14932
14940
14941
14942
14943
14951
14959
14960
14963
14965
14970
14994
15064
15072
15081
15090
15091
15096
15131
15252
15259
15263
15264
15293
15296
15310
15325
15348
15395
15396
15849
15942
15946
15958
15961
15965
15972
15973
15989
16002
16003
16028
16029
16039
16068
16070
16140
16482
16753
16777
16778
16904
16943
16981
16982
16983
17000
17008
17019
17282
17284
17286
17293
17295
17306
17308
17334
17337
17338
17378
17384
17390
17392
17586
17593
17631
17648
17895
18172
18181
18214
18774
18775
18793
18805
18827
18895
18945
18967
19138
19141
19145
19155
19159
19160
19167
19208
19226
19245
19255
19265
19271
19279
19285
19305
19475
19479
19480
19486
19538
19889
19989
20000
20001
20020
20118
20121
20143
20159
20172
20320
20331
20356
20435
20436
20438
20443
20445
20534
20616
20638
20661
20662
20699
20707
21018
21028
21087
21108
21158
21162
21164
21166
21192
21317
21350
21385
21408
21514
21518
21523
21568
21628
21750
21769
21770
21789
21963
22022
22025
22043
22047
22058
22080
22081
22083
22089
22100
22101
22106
22108
22132
22133
22135
22139
22313
22315
22452
22458
22522
22543
22544
22553
22555
22561
22569
22576
22578
22586
22588
22592
22596
22597
22935
23296
23303
23308
23312
28736
28737
28755
28758
29057
42751
42926
42930
43118
51231
51681
51725
51727
51733
51775
[ 139 ]
4027
4029
4059
4117
4211
4235
4317
4318
5028
5514
5533
5535
5551
5592
5593
5665
5667
5668
5816
5864
5867
6255
6256
6289
6298
6299
6374
6376
6401
6461
6462
6464
6475
8397
8398
10273
10274
11609
11610
11611
12518
12579
12651
12690
12794
12796
12798
12801
12805
14190
14195
14199
14665
14776
14795
14796
14797
14801
14814
14821
14827
14830
14882
14888
14892
14907
14908
14929
14944
14948
14949
14955
14956
14962
14964
14971
14972
15074
15080
15095
15101
15106
15135
15251
15297
15302
15304
15305
15338
15339
15593
15701
15848
15851
15938
15939
15944
15968
15970
15978
15979
15981
15982
15983
15985
15986
15993
16004
16038
16045
16069
16080
16082
16087
16093
16097
16101
16106
16111
16120
16134
16135
16137
16138
16394
16483
16484
16617
16900
16905
16937
16938
16946
16947
16948
16998
17001
17005
17027
17081
17283
17291
17300
17301
17303
17304
17318
17331
17340
17359
17367
17368
17370
17371
18151
18198
18200
18777
18794
18796
18979
19142
19163
19165
19270
19274
19283
19284
19286
19300
19474
19477
19490
19519
19525
19526
19892
19893
19957
19990
20137
20141
20142
20148
20150
20158
20162
20164
20175
20321
20330
20335
20343
20353
20391
20415
20442
20446
20644
20655
20680
20681
20693
20705
20708
20709
20716
21016
21023
21049
21109
21286
21304
21305
21336
21340
21428
21435
21674
22049
22090
22103
22104
22105
22111
22127
22134
22140
22141
22142
22301
22327
22337
22338
22443
22473
22493
22517
22520
22523
22534
22541
22552
22556
22598
22944
23108
23110
23298
23301
23516
28733
28734
28745
28754
28764
28792
29069
29115
30392
30393
41816
42723
42724
42746
42783
42813
42816
42825
42923
42925
42936
42946
43067
46275
47001
50678
51259
51680
51714
51734
51776
51827
59027
[ 140 ]
4212
5534
5569
5579
5580
5582
5583
5666
5753
5754
5914
5915
11612
12676
12905
12966
12991
14781
14792
14793
14823
14824
14825
14829
14839
14840
14884
14923
14924
14937
14945
14953
14954
14958
14976
14979
15100
15108
15113
15121
15128
15303
15384
15597
15599
15600
15700
15846
15984
15997
16011
16012
16021
16023
16044
16064
16095
16096
16114
16115
16116
16481
16635
16902
16972
16973
16997
17002
17006
17057
17073
17290
17339
17344
17347
17351
17352
17356
17358
17365
17369
17375
17403
17888
17891
18171
18196
18828
18924
18927
18966
19001
19042
19166
19209
19272
19461
19462
19464
19466
19469
19481
19487
19488
19489
19491
19509
19515
19516
19559
20139
20144
20145
20146
20147
20151
20344
20447
20682
20690
20704
21113
21115
21130
21155
21187
21227
21284
21338
22033
22062
22124
22125
22143
22144
22145
22300
22318
22319
22340
22454
22466
22479
22491
22532
22539
22546
22547
22550
22557
22577
22674
22689
22691
22693
22695
22696
22942
22943
23103
23111
23297
23300
23527
23686
28594
28738
28791
29273
29398
29986
30422
31254
32016
32193
37443
40694
40695
41232
41395
41773
41776
41777
41798
42086
42125
42133
42157
42161
42171
42172
42188
42213
42214
42222
42303
42496
42602
42721
42722
42726
42739
42740
42744
42748
42750
42773
42780
42781
42782
42784
42807
42842
42843
42845
42876
42918
42924
42943
43139
43140
46276
47000
50237
50918
51075
51193
51350
51368
51588
51627
51639
51712
51715
51717
51742
51753
51754
51768
51769
51792
51796
51825
51826
51854
59043
59112
59836
61260
[ 141 ]
4072
4120
4127
4129
5565
5566
5584
12803
12804
12898
12971
14832
14838
14842
14912
14915
14916
14918
14952
15117
15119
15124
15306
15307
15590
15607
15998
16000
16007
16013
16019
16024
16061
16062
16072
16102
16104
16307
16477
16478
16490
16627
16638
16643
16645
16646
16647
16649
16652
16655
16658
16659
16901
16903
17074
17289
17341
17363
17401
18926
19467
20160
21058
21059
21094
21110
21112
21151
21152
21156
21257
21264
22046
22121
22148
22325
22436
22474
22482
22492
22495
22498
22504
22508
22518
22529
22671
22672
22675
22683
22685
22687
22688
22692
22694
22922
22934
23106
23143
23222
23231
23249
23402
23404
23412
23413
23421
26155
28606
28741
28778
28967
28972
28999
29010
30449
30451
30716
30768
30781
31571
31595
32152
32185
32199
35434
36673
36674
37103
37468
37526
37530
38119
39300
40483
40690
40884
40907
40909
40992
41197
41235
41392
41475
41611
41732
41762
41764
41774
41775
41779
41795
41820
41827
41831
41832
41836
41837
41839
42018
42088
42090
42119
42173
42204
42238
42333
42425
42453
42477
42497
42498
42499
42561
42562
42615
42717
42742
42745
42756
42757
42772
42775
42776
42779
42785
42787
42797
42799
42800
42805
42811
42826
42841
42846
42850
42872
42873
42877
42880
42881
42883
42894
42904
42921
42922
42992
43019
43045
43049
43063
43072
43111
43165
43385
46266
46278
46300
46366
46368
46409
47003
47004
50098
50142
50213
50260
50930
50932
51017
51018
51078
51154
51189
51224
51226
51347
51515
51618
51623
51640
51657
51686
51687
51718
51735
51759
56000
58888
59017
59044
59108
59261
59262
59264
59282
59738
59828
59835
59850
59869
60032
60034
60125
60529
63230
[ 142 ]
14836
14841
15995
16008
16010
16015
16017
16103
16313
16315
16639
16640
16642
16650
16653
17360
17396
17397
17398
19511
21015
21061
21064
21148
21150
22330
22494
22496
22677
22678
22679
22680
22684
22918
23137
23230
23241
23380
23383
23386
23395
23396
23397
23427
26154
26156
28968
28973
28994
28995
29000
29004
30445
30447
30450
30715
30725
30730
30731
30743
30789
30816
31022
31024
31245
31574
32021
32029
32060
32137
32138
32143
32144
32146
32155
32160
32172
32173
32174
32179
32192
32194
32195
35877
35883
36184
36208
36210
36212
36626
36627
36658
37110
37387
37390
37395
37442
37470
37491
37529
37537
37849
38109
38114
38120
38122
39294
39335
40383
40386
40459
40484
40532
40575
40620
40621
40634
40640
40647
40666
40674
40681
40683
40702
40753
40755
40757
40932
40933
40979
40984
40987
40995
41012
41046
41062
41108
41144
41194
41198
41406
41482
41483
41496
41503
41504
41506
41545
41589
41590
41623
41649
41690
41692
41731
41796
41824
41826
41828
41829
41830
41841
42140
42169
42192
42251
42312
42315
42324
42332
42441
42460
42476
42484
42495
42501
42507
42546
42547
42560
42564
42589
42609
42634
42637
42640
42642
42728
42729
42730
42736
42737
42743
42760
42761
42762
42765
42767
42768
42774
42789
42790
42794
42796
42798
42801
42803
42806
42809
42810
42823
42832
42836
42837
42840
42844
42851
42853
42855
42864
42866
42896
42898
42900
42903
42993
43046
43054
43055
43064
43086
43095
43107
43168
43386
44478
46301
46305
46306
46411
46646
47005
47009
47012
47014
50144
50151
50199
50231
50547
50884
50903
50913
50915
50975
50978
50980
51014
51015
51022
51070
51328
51372
51491
51503
51523
51557
51583
51621
51625
51631
51650
51659
51724
51758
51761
51774
51822
55992
56023
58492
58495
58496
58621
58836
58859
58885
58892
58995
58996
59023
59092
59099
59103
59118
59120
59121
59256
59258
59311
59843
59896
59968
59976
60038
60047
60130
60139
60534
61135
61153
61236
61237
61355
62009
62083
62104
63569
63572
63778
63792
63852
66321
66357
66441
[ 143 ]
16018
16314
16651
17361
17395
22686
23105
23198
23199
23210
23214
23216
23219
23227
23233
23392
23394
23398
23400
23401
23417
23444
23501
25896
26397
28970
28996
29003
29997
30397
30444
30448
30718
30720
30721
30722
30724
30727
30729
30740
30742
30744
30755
30756
30769
30779
30780
30786
30787
30796
30813
30817
30820
31014
31025
31575
32013
32061
32067
32110
32112
32114
32145
32149
32153
32154
32157
32158
32168
32171
33722
33724
33816
35199
35200
35443
35444
35912
36207
36209
36237
36252
36264
36603
36642
36651
36652
36656
36669
36687
36712
36769
36844
36923
36948
36991
37094
37260
37276
37384
37385
37388
37389
37391
37393
37427
37436
37437
37440
37441
37486
37521
37527
37528
37532
37692
37700
37702
37704
37847
37850
38116
38138
38153
38154
39281
39324
39326
39336
39337
40385
40396
40410
40458
40467
40471
40485
40486
40579
40592
40594
40595
40608
40622
40626
40627
40633
40637
40646
40652
40665
40668
40682
40687
40700
40742
40743
40859
40906
40908
40913
40914
40918
40928
40929
40930
40931
40934
40982
40985
40994
40998
41000
41003
41039
41061
41077
41079
41101
41103
41105
41145
41188
41193
41459
41463
41480
41486
41499
41531
41546
41547
41548
41555
41617
41622
41625
41632
41669
41672
41676
41677
41680
41685
41691
41701
41702
41725
41726
41727
41737
41739
41740
41769
41772
41783
41789
41808
41813
41818
41825
41842
41852
42139
42144
42185
42216
42240
42243
42244
42271
42308
42390
42395
42396
42400
42417
42418
42428
42430
42431
42433
42443
42444
42451
42452
42455
42461
42493
42494
42502
42506
42510
42512
42515
42517
42527
42535
42544
42545
42549
42552
42553
42554
42570
42576
42577
42584
42587
42588
42590
42598
42599
42604
42607
42608
42614
42625
42628
42629
42630
42633
42643
42648
42653
42660
42685
42702
42705
42706
42707
42708
42713
42741
42770
42788
42791
42792
42793
42818
42827
42835
42839
42847
42849
42852
42859
42865
42868
42869
42884
42890
42892
42899
42958
43013
43036
43037
43096
43108
43142
43387
43388
43393
46304
46407
46410
46414
47006
47010
47020
47026
47027
47028
47327
47328
47520
50149
50191
50202
50235
50236
50268
50334
50416
50548
50577
50643
50685
50890
50929
51013
51023
51118
51199
51205
51239
51251
51499
51502
51508
51704
51778
51789
51799
51815
51817
51853
52067
55305
56001
56014
56017
56022
56069
56115
56134
56741
56963
58489
58490
58491
58493
58501
58508
58595
58597
58600
58613
58705
58719
58729
58737
58757
58758
58765
58769
58828
58853
58924
59006
59065
59101
59114
59116
59161
59173
59241
59324
59361
59745
59749
59781
59797
59803
59832
59874
59945
59960
59961
60042
60082
60094
60100
60101
60107
60116
60132
60135
60141
60158
60161
60181
60473
60505
60510
60842
60887
60920
61124
61155
61156
61229
61297
61856
61914
61918
61965
62069
62088
62154
62359
62378
62755
62816
62875
62877
62927
62928
62962
63010
63097
63137
63144
63227
63482
63546
63567
63592
63612
63698
63733
63991
64134
64139
64350
64786
64830
64833
64850
65336
65476
65484
66105
66319
66320
66347
66370
66375
66402
66403
66411
66442
66444
66446
66447
66502
66528
66579
66629
66639
66676
66677
66726
66730
66765
68634
[ 144 ]
23129
23152
23242
23344
23391
23393
23399
25453
29002
30719
30736
30737
30766
30767
30770
30778
30792
30797
30804
30805
30808
30810
30812
31013
31999
32024
32038
32041
32062
32064
32065
32066
32076
32140
32151
32164
32166
32527
32875
33721
33725
33790
33798
33854
33855
33964
34025
34303
34346
35210
35250
35251
35871
35882
35884
35914
35915
36036
36037
36080
36182
36235
36236
36241
36242
36244
36488
36489
36523
36526
36530
36532
36536
36537
36543
36548
36549
36624
36625
36628
36629
36630
36637
36641
36644
36645
36646
36659
36671
36675
36686
36695
36697
36698
36710
36711
36730
36731
36732
36734
36735
36758
36759
36766
36768
36810
36841
36843
36845
36853
36899
36925
36951
36952
37086
37089
37097
37114
37115
37140
37141
37143
37181
37182
37213
37234
37261
37268
37273
37278
37381
37386
37392
37394
37397
37412
37421
37464
37465
37466
37471
37472
37490
37506
37515
37522
37525
37682
37684
37838
37848
37853
38002
38007
38110
38111
38113
38121
38137
38146
38150
38155
38158
38165
38262
38385
38386
39273
39276
39289
39290
39293
39295
39297
39298
39343
39347
39348
39349
39351
40224
40313
40389
40392
40405
40413
40493
40507
40511
40512
40521
40534
40535
40562
40576
40577
40581
40635
40648
40649
40661
40686
40688
40706
40707
40726
40730
40733
40745
40832
40854
40865
40869
40892
40916
40917
40920
40926
40936
40944
40954
40972
40974
40976
40980
40983
41015
41035
41036
41041
41045
41052
41060
41064
41067
41082
41117
41123
41132
41135
41157
41191
41192
41203
41205
41227
41237
41282
41283
41433
41442
41479
41489
41507
41515
41550
41552
41553
41554
41569
41588
41619
41624
41628
41630
41631
41633
41635
41638
41653
41655
41656
41657
41658
41665
41667
41668
41670
41671
41674
41675
41682
41683
41696
41698
41699
41704
41724
41728
41730
41741
41742
41745
41760
41761
41809
41846
41847
41851
41858
41859
42182
42218
42241
42328
42355
42389
42394
42398
42411
42424
42435
42436
42442
42450
42454
42456
42471
42474
42486
42505
42516
42518
42521
42523
42524
42525
42537
42541
42542
42550
42551
42568
42571
42573
42579
42583
42585
42586
42606
42627
42644
42645
42647
42652
42655
42657
42667
42668
42701
42710
42769
42848
42856
42858
42860
42889
42959
42960
42963
42974
42980
42996
42998
43100
43101
43109
43145
43148
43152
43157
43172
43391
44496
44498
44499
46415
47053
47101
47244
47270
47310
47322
47323
47326
47329
47352
47357
47405
47514
50041
50047
50072
50075
50092
50138
50139
50140
50141
50152
50192
50214
50220
50257
50258
50259
50262
50274
50422
50543
50549
50550
50556
50558
50644
50686
50695
50696
50697
50730
50742
50777
50779
50786
50838
50876
50881
50904
50905
50911
50923
50988
50989
50996
51019
51020
51021
51024
51079
51104
51206
51240
51476
51483
51798
51800
51810
51847
51859
51877
52071
54733
54735
54827
55297
55430
55978
56011
56041
56094
56717
56719
56727
56729
56734
56910
56914
56920
56921
56929
56934
56971
58485
58494
58497
58500
58511
58675
58756
58811
58835
58840
58889
58923
58951
59048
59079
59093
59206
59207
59229
59232
59259
59315
59344
59359
59399
59705
59729
59747
59752
59758
59769
59772
59876
59952
60092
60136
60229
60280
60282
60283
60431
60438
60503
60506
60542
60840
60883
60897
60910
61117
61217
61224
61227
61235
61330
61863
61891
61942
62086
62116
62538
62546
62587
62592
62596
62599
62603
62604
62616
62815
62858
62880
62926
62955
63071
63093
63136
63165
63189
63203
63205
63215
63222
63233
63241
63242
63245
63277
63305
63390
63454
63504
63511
63542
63952
64293
64392
64537
64750
64840
64920
65078
65142
65281
65634
65947
65985
66013
66115
66171
66230
66279
66322
66490
66513
66533
66559
66568
66586
66632
66634
66635
66669
66758
66823
66920
66926
66996
66997
67241
67633
67634
67668
67800
68136
68260
68264
68301
68302
68451
68467
68469
68793
68798
68852
68881
68899
68963
69005
69098
69779
[ 145 ]
23240
23377
30738
30759
30760
30765
30773
30777
30794
30801
30806
30809
30811
30821
30877
30878
30952
30963
30972
30973
30979
30980
32006
32007
32011
32040
32042
32047
32063
32069
32070
32074
32075
32077
32088
32091
32117
32156
33717
33718
33723
33730
33731
33732
33736
33751
33752
33753
33756
33785
33791
33845
33952
33956
33972
34028
34244
34258
34340
34863
35253
35256
35258
35260
35338
35872
35885
35886
35888
35891
35892
35899
35958
35959
35971
35973
35995
36008
36043
36050
36085
36086
36087
36147
36174
36234
36243
36269
36294
36295
36424
36471
36487
36494
36522
36529
36533
36535
36539
36544
36546
36547
36585
36589
36592
36604
36611
36622
36635
36636
36639
36648
36653
36660
36661
36676
36678
36680
36690
36691
36692
36694
36701
36702
36704
36705
36725
36727
36728
36753
36756
36757
36781
36786
36817
36818
36838
36842
36847
36848
36889
36911
36929
36937
36940
36953
36954
36955
36965
36966
36979
36982
36987
37081
37084
37092
37108
37113
37116
37132
37137
37139
37146
37147
37154
37211
37215
37228
37231
37233
37235
37236
37239
37250
37255
37263
37264
37265
37267
37269
37270
37272
37274
37275
37311
37373
37398
37399
37401
37411
37428
37429
37430
37434
37439
37445
37473
37479
37483
37487
37488
37489
37493
37496
37497
37508
37510
37523
37524
37681
37683
37837
37843
37846
37851
37854
38071
38128
38141
38148
38156
38159
38164
38279
38326
38328
38417
38419
38423
39278
39279
39284
39286
39287
39288
39292
39306
39313
39350
39370
39378
40310
40312
40320
40322
40400
40401
40402
40404
40406
40407
40408
40412
40414
40417
40431
40433
40434
40440
40441
40442
40451
40453
40472
40479
40514
40533
40540
40541
40555
40568
40571
40585
40591
40602
40609
40645
40659
40663
40708
40740
40746
40748
40761
40800
40802
40828
40829
40830
40838
40845
40849
40853
40857
40863
40876
40878
40889
40890
40891
40896
40901
40902
40924
40927
40938
40939
40940
40941
40953
40955
40971
40973
40977
41027
41034
41037
41121
41134
41153
41185
41187
41249
41250
41288
41290
41311
41458
41477
41491
41511
41512
41513
41514
41516
41529
41533
41534
41538
41543
41544
41558
41564
41565
41580
41581
41582
41629
41639
41641
41660
41661
41663
41664
41666
41679
41700
41703
41705
41721
41743
41746
41755
41756
41786
41850
42097
42388
42397
42399
42410
42414
42421
42423
42432
42446
42447
42448
42449
42470
42504
42528
42530
42533
42536
42538
42540
42543
42555
42566
42567
42569
42623
42624
42646
42651
42654
42665
42677
42681
42688
42689
42694
42700
43002
43149
43389
43390
44130
44493
46118
46325
46398
46400
46405
46406
46641
46812
46813
46816
47022
47036
47111
47157
47201
47202
47252
47260
47330
47331
47339
47341
47351
47358
47359
47377
47402
47408
47504
47505
47506
50028
50080
50097
50121
50147
50148
50201
50219
50265
50266
50269
50282
50283
50324
50330
50539
50541
50580
50581
50582
50592
50596
50882
50888
50912
50942
51010
51016
51087
51109
51486
51530
51783
51797
51802
51848
51852
51857
51932
52000
52002
52043
52048
52070
54431
55292
55333
55529
55554
55555
55559
55594
55602
55613
55833
55891
55896
56008
56047
56048
56049
56120
56726
56728
56730
56732
56733
56735
56737
56738
56912
56915
56918
56926
56936
56942
56944
56970
58179
58484
58486
58488
58499
58503
58504
58576
58593
58643
58649
58706
58716
58728
58734
58748
58764
58782
58907
58914
58964
58967
58973
59136
59155
59159
59332
59586
59814
59947
60059
60079
60119
60133
60157
60175
60348
60508
61089
61220
61867
62499
62541
62583
62589
62600
62681
62706
62712
62908
62922
63039
63126
63160
63228
63439
63553
63558
63639
63645
63654
63961
64014
64118
64160
64187
64372
64398
64441
64502
64539
64618
64643
64724
64727
64769
64804
64881
64916
64917
64953
65114
65133
65431
65494
65501
65659
65680
65815
65860
65886
65974
66000
66012
66021
66066
66114
66147
66185
66270
66271
66362
66363
66585
66703
66804
66879
66923
66924
66973
67048
67080
67096
67111
67114
67149
67199
67248
67250
67322
67350
67373
67374
67401
67505
67665
67715
67729
67958
68135
68180
68257
68258
68286
68348
68366
68426
68429
68480
68713
68759
68766
68768
68774
68791
68794
68954
68985
69019
69079
69134
69155
69200
69229
69236
69275
69421
69495
69559
69609
69615
69621
69737
[ 146 ]
30734
30763
30793
30800
30823
30958
30961
30965
30967
30971
32010
32043
32046
32051
32071
32072
32078
32090
32092
32128
33739
33743
33750
33757
33766
33772
33784
33794
33796
33814
33918
33934
33935
33944
33959
33968
33969
33984
34016
34026
34045
34057
34106
34238
34245
34250
34262
34263
34308
34849
34850
34855
35214
35252
35331
35334
35340
35376
35389
35887
35889
35903
35907
35964
35974
35975
35980
36009
36012
36018
36021
36024
36030
36033
36035
36070
36077
36082
36084
36145
36146
36179
36196
36226
36227
36239
36245
36246
36273
36280
36283
36296
36297
36298
36350
36351
36361
36362
36386
36411
36422
36461
36466
36472
36502
36504
36519
36521
36528
36545
36562
36566
36572
36573
36595
36598
36605
36610
36613
36616
36633
36634
36649
36682
36688
36707
36708
36724
36737
36739
36745
36773
36778
36814
36816
36819
36822
36823
36832
36836
36851
36856
36858
36859
36865
36867
36871
36874
36888
36890
36894
36897
36975
36996
37008
37012
37013
37017
37085
37098
37099
37118
37131
37134
37144
37145
37151
37152
37156
37157
37163
37176
37185
37186
37188
37205
37209
37212
37214
37220
37221
37222
37226
37232
37238
37245
37266
37271
37277
37284
37286
37289
37293
37295
37300
37308
37309
37310
37312
37317
37327
37330
37351
37370
37406
37408
37425
37431
37433
37477
37478
37480
37481
37484
37495
37498
37503
37509
37517
37663
37672
37674
37678
37679
37687
37840
37842
37855
37856
37858
37860
37861
37862
37863
37868
37872
37883
37884
37886
38010
38014
38015
38019
38112
38145
38161
38184
38268
38269
38270
38273
38275
38278
38280
38306
38314
38324
38389
38406
38407
38418
39310
39319
39322
39371
39373
40230
40240
40243
40399
40403
40419
40432
40444
40501
40502
40503
40504
40513
40528
40542
40543
40557
40560
40603
40606
40615
40617
40720
40722
40728
40760
40762
40786
40787
40790
40803
40804
40810
40812
40813
40815
40816
40824
40831
40836
40837
40839
40841
40848
40852
40870
40898
40899
40947
40951
40961
40965
40969
40970
41009
41118
41137
41155
41286
41466
41508
41509
41510
41517
41518
41519
41526
41540
41568
41570
41574
41583
41584
41585
41609
41640
41644
41645
41673
41706
41712
41715
41717
41718
41729
41744
41748
41849
42402
42403
42404
42409
42413
42457
42519
42529
42531
42532
42557
42558
42580
42592
42593
42594
42669
42671
42675
42676
42679
42687
42692
42695
42698
42819
42997
46394
47030
47071
47090
47098
47099
47100
47108
47109
47110
47158
47183
47234
47238
47240
47246
47247
47262
47263
47276
47277
47278
47279
47312
47317
47320
47321
47332
47340
47342
47344
47380
47384
47396
47501
50016
50034
50038
50078
50085
50105
50129
50184
50185
50217
50218
50264
50273
50317
50332
50338
50413
50460
50462
50506
50522
50537
50562
50565
50567
50573
50585
50595
50601
50607
50645
50653
50795
50855
50867
50940
51042
51092
51466
51479
51851
51976
52051
52058
52074
52075
54408
54421
54427
54432
54515
54519
54615
54730
54732
54734
55200
55411
55505
55567
55582
55588
55591
55598
55600
55601
55772
55845
55855
55918
55924
56004
56005
56007
56247
56300
56722
56724
56771
56772
56777
56904
56925
56940
58205
58280
58482
58483
58509
58512
58523
58564
58572
58575
58635
58650
58651
58659
58661
58818
58917
58968
58974
58975
59141
59142
59147
59534
59625
59721
60380
60405
60479
61987
62175
62224
62257
62274
62287
62322
62463
62466
62491
62529
62577
62585
62687
62691
62705
63641
63684
64095
64168
64210
64261
64264
64337
64483
64520
64530
64545
64617
64646
64879
65061
65096
65150
65193
65224
65226
65227
65229
65239
65245
65278
65280
65414
65415
65521
65522
65556
65741
65762
65831
65952
65961
66027
66067
66087
66118
66134
66623
66976
67098
67191
67219
67329
67475
67476
67717
67746
67749
67750
67866
67886
67923
67938
67945
67961
67969
68035
68094
68122
68140
68218
68281
68332
68582
68610
68693
68779
68821
68868
68909
68929
68955
68970
69033
69222
69501
69611
69614
69623
69684
69793
69999
[ 147 ]
30762
30824
30836
30896
30943
30945
30969
30974
30975
30976
30977
30978
32009
32044
32052
32058
32080
32083
32089
32667
32908
33769
33793
33820
33825
33843
33890
33891
33900
33929
33991
34013
34015
34019
34022
34055
34061
34093
34152
34153
34157
34243
34248
34847
34848
34852
34869
34870
35254
35255
35335
35343
35351
35387
35896
35906
35957
35966
35970
35985
35988
35996
36005
36022
36025
36031
36072
36073
36078
36079
36083
36094
36096
36106
36108
36149
36181
36255
36274
36285
36314
36315
36320
36325
36331
36366
36369
36374
36383
36384
36396
36409
36428
36429
36473
36481
36483
36501
36503
36507
36510
36512
36513
36516
36534
36551
36559
36561
36568
36569
36578
36587
36588
36681
36684
36775
36798
36802
36804
36824
36831
36833
36834
36837
36854
36862
36870
36875
36877
36878
36895
36896
36909
36912
36913
36973
36974
37031
37032
37038
37046
37050
37055
37057
37069
37072
37082
37124
37129
37148
37149
37165
37167
37175
37177
37190
37216
37244
37246
37249
37251
37282
37287
37290
37291
37292
37296
37297
37298
37299
37301
37302
37303
37318
37320
37321
37326
37331
37333
37356
37358
37359
37361
37362
37364
37365
37378
37404
37409
37414
37417
37418
37494
37499
37500
37501
37502
37505
37512
37516
37670
37708
37841
37865
37866
37867
37876
37880
37885
37937
38013
38018
38063
38075
38076
38078
38079
38083
38085
38092
38142
38180
38181
38263
38277
38285
38287
38289
38293
38295
38297
38300
38301
38309
38315
38316
38317
38318
38319
38321
38325
38329
38330
38399
38401
39321
39375
39377
39379
39854
40235
40242
40321
40324
40418
40424
40426
40437
40449
40545
40551
40709
40715
40717
40719
40747
40763
40764
40768
40789
40793
40798
40809
40818
40820
40821
40825
40833
40840
40842
40846
40895
40949
40956
40968
41006
41021
41119
41138
41312
41468
41528
41535
41539
41560
41561
41563
41567
41573
41575
41576
41577
41579
41586
41642
41643
41662
41710
41711
41713
41716
41719
41752
42422
42539
42663
42674
42678
42680
42697
46395
47068
47072
47078
47089
47095
47097
47122
47132
47133
47135
47142
47151
47159
47182
47199
47200
47214
47231
47237
47239
47242
47265
47299
47313
47314
47318
47319
47334
47345
47346
47347
47364
47367
47369
47385
47395
47401
47409
50023
50132
50156
50165
50271
50272
50284
50291
50315
50316
50318
50331
50419
50428
50430
50433
50489
50505
50535
50588
50589
50621
50640
50641
50650
50789
50820
50883
50941
50985
51046
51212
51549
51805
51879
51961
52012
52038
52045
52062
52986
53002
53161
53683
53996
54066
54197
54404
54405
54412
54424
54428
54429
54440
54441
54452
54480
54481
54488
54500
54562
54563
54566
54567
54766
54773
54958
55151
55205
55438
55607
55728
55750
55777
55787
55790
55794
55832
55834
55838
55840
56003
56186
56333
56547
56712
56721
56723
56725
56784
56888
56950
56972
57011
57150
57270
57273
57275
57336
58178
58181
58206
58371
58375
58417
58431
58445
58498
58518
58519
58521
58529
58533
58536
58556
58639
59330
59465
59480
61022
61023
61024
61035
61040
62210
62264
62321
62489
62866
64033
64167
64546
64551
64615
64726
65233
65259
65294
65349
65392
65520
65541
65699
65704
65705
65716
65951
66047
67164
67304
67352
67462
67556
67580
67973
68032
68042
68175
68233
68609
68612
68780
68810
68846
68932
68951
68957
69020
69032
69210
69429
69761
69765
69796
69816
69937
[ 148 ]
30825
32053
33771
33778
33828
33841
33901
33913
33916
33978
33979
33982
33985
33986
33987
34000
34004
34009
34010
34033
34034
34041
34044
34047
34048
34056
34058
34072
34073
34085
34094
34131
34133
34141
34142
34199
34237
34253
34264
34265
34268
34269
34282
34842
34844
34864
34865
34866
34871
35352
35379
35986
35989
35992
36023
36026
36027
36028
36091
36100
36109
36144
36176
36277
36278
36291
36302
36307
36327
36330
36346
36348
36357
36359
36368
36387
36391
36394
36399
36400
36403
36404
36410
36430
36434
36435
36486
36490
36509
36517
36560
36564
36565
36574
36721
36722
36777
36789
36792
36793
36795
36805
36821
36825
36829
36873
36968
36971
36972
37002
37007
37010
37018
37021
37025
37026
37029
37037
37054
37058
37059
37060
37063
37066
37068
37071
37121
37123
37128
37158
37161
37168
37194
37195
37198
37200
37203
37206
37207
37229
37230
37241
37242
37243
37304
37305
37314
37315
37316
37319
37322
37325
37335
37341
37349
37366
37377
37379
37403
37405
37504
37673
37712
37831
37834
37871
37874
37878
37889
37890
37893
37916
37935
37936
38016
38017
38065
38074
38087
38288
38290
38291
38292
38294
38302
38303
38310
38322
38323
38335
38398
38404
38415
38416
38424
39308
39309
39318
39355
39381
39849
39864
39865
39870
40232
40244
40422
40447
40448
40549
40550
40710
40766
40774
40775
40785
40791
40792
40796
40819
40964
46432
47075
47093
47096
47121
47124
47125
47129
47131
47140
47161
47172
47186
47193
47194
47196
47197
47204
47212
47223
47241
47253
47254
47256
47257
47261
47296
47297
47375
47399
47410
47497
47499
50086
50127
50166
50281
50295
50299
50339
50344
50447
50501
50509
50510
50604
50606
50614
50681
50799
50807
50823
50826
50856
50857
50858
51407
51878
51947
51954
52011
52387
52928
52978
52987
52991
52995
53000
53006
53064
53065
53081
53163
53402
53420
53489
53501
53722
53723
53936
53970
53981
53985
54007
54010
54026
54049
54065
54129
54199
54209
54298
54302
54332
54350
54383
54439
54449
54479
54484
54511
54527
54548
54558
54565
54573
54612
54678
54703
54715
54720
54721
54722
54728
54729
54778
54864
54868
54937
55035
55125
55129
55149
55222
55223
55224
55240
55261
55721
55754
55782
55825
55829
56320
56341
56361
56372
57032
57053
57134
57271
57310
57331
57332
57573
57811
58140
58151
58155
58171
58193
58211
58212
58215
58223
58225
58236
58316
58331
58389
58427
58475
58476
58477
58531
58535
58538
58543
58549
58560
58562
59481
59483
59484
59485
59486
59623
59630
59631
60301
60546
60775
61018
61020
61042
62689
65698
65717
67154
67174
67353
67464
67465
68056
68608
69746
69748
[ 149 ]
30865
33831
33903
33923
33977
34008
34030
34037
34046
34049
34079
34086
34095
34097
34099
34103
34105
34167
34217
34231
34242
34267
34335
34836
34837
34854
35386
36097
36110
36275
36286
36305
36333
36347
36360
36365
36372
36388
36390
36395
36401
36402
36476
36480
36575
36800
36830
36876
36969
37020
37022
37023
37024
37028
37030
37035
37052
37053
37056
37061
37062
37067
37169
37170
37171
37173
37174
37196
37197
37199
37280
37313
37323
37324
37334
37338
37340
37344
37352
37354
37355
37363
37832
37833
37875
37879
37922
37925
37939
37952
37962
37970
37978
38080
38091
38311
38312
38336
38352
38393
38395
38409
39836
39843
39846
39855
39911
40423
40712
40782
40834
40835
41578
46636
47074
47077
47094
47115
47117
47118
47123
47128
47130
47137
47138
47167
47168
47173
47192
47210
47225
47258
47259
47298
47388
47411
47412
47414
50130
50293
50294
50298
50341
50456
50508
50512
50513
50586
50619
50821
50854
51917
51936
51944
52989
52992
52999
53001
53003
53007
53342
53505
53560
53680
53721
53860
53866
53943
53960
53979
53998
54025
54030
54033
54034
54040
54074
54082
54112
54122
54157
54165
54203
54215
54220
54272
54277
54306
54346
54366
54367
54371
54402
54433
54438
54446
54447
54513
54551
54561
54600
54611
54716
54881
54989
54998
55104
55147
55169
55179
55180
55225
55229
56348
56370
56399
56550
56568
56604
56610
56611
57019
57033
57038
57040
57048
57049
57071
57129
57163
57261
57262
57342
57408
57439
57610
57634
57664
57781
57809
57847
58122
58186
58188
58213
58217
58231
58327
58350
58377
58404
58412
58466
58468
58472
58539
58540
58548
58550
59468
59470
59566
59644
60650
69760
[ 150 ]
30863
33775
33914
33921
33924
33998
34005
34087
34090
34091
34098
34177
34190
34840
36098
36099
36288
37004
37122
37336
37337
37339
37345
37346
37347
37348
37724
37923
37924
37930
37931
37934
37961
37966
37967
37971
37976
38090
38341
38342
38343
38359
38361
39840
39844
39860
39867
39872
39912
40778
47126
47127
47134
47141
47144
47145
47146
47164
47165
47166
47169
47171
47177
47178
47209
47226
47415
47427
50014
50053
50116
50587
50603
50631
50797
50806
50841
51880
52930
52979
52990
53004
53017
53018
53019
53021
53085
53252
53508
53531
53546
53655
53686
53728
53760
53766
53801
53803
53882
53885
53942
53957
53971
53991
53992
53999
54003
54068
54156
54164
54191
54204
54206
54214
54249
54262
54313
54344
54362
54437
54472
54557
54708
54717
54743
54856
54913
54926
54971
55019
55033
55047
55158
55162
55163
55164
55188
55192
56356
56466
56482
56567
56605
56612
56637
56898
56901
57039
57059
57066
57070
57252
57278
57357
57440
57461
57464
57489
57703
57807
57840
57842
58070
58117
58199
58274
58323
58414
58464
58467
58478
58480
59578
60741
[ 151 ]
30867
34174
34176
34179
34189
34841
37342
37343
37941
37943
37955
37969
38358
39852
39868
47119
47149
47181
47428
50306
50507
52569
52624
52716
52813
52823
52826
52884
52889
52926
52934
52966
52969
52983
52994
53022
53037
53425
53550
53684
53690
53789
53805
53926
54002
54246
54248
54368
54552
54575
54576
54942
55133
55159
55853
56406
56413
56422
56570
56595
56648
56653
56655
57397
57434
57452
57853
57914
58115
58237
58247
58326
58457
58459
60770
[ 152 ]
34193
37958
37968
50805
52143
52236
52578
52605
52618
52622
52661
52700
52702
52704
52721
52730
52814
52822
52895
52932
52933
52938
52961
52965
52967
52968
53015
53050
53486
53509
53677
53763
53954
54017
54099
54100
54155
54321
54467
54754
54756
56613
56647
57015
57044
57346
57418
57427
57433
57451
59580
[ 153 ]
37960
50803
52234
52262
52336
52366
52458
52466
52626
52629
52689
52705
52712
52744
52751
52755
52771
52788
52827
52887
52902
52912
52923
52935
52964
53506
56459
57435
[ 154 ]
37959
52247
52640
52657
52667
52707
52753
52762
52764
52778
52796
52809
52815
52824
52825
52828
52829
52830
52858
52859
52865
52885
52886
52890
52899
52906
52924
52925
52939
52945
52947
52971
53507
53901
[ 155 ]
52163
52175
52248
52260
52313
52581
52658
52708
52833
52857
52871
52908
52910
52911
52913
52914
52936
53702
53784
53845
53923
[ 156 ]
52246
52653
52754
52780
52834
52863
52869
52873
52876
52919
[ 157 ]
52256
52840
52841
52850
52864
52875
52918
52922
[ 158 ]
52842
52844
52921
[ 159 ]
52861
[ 161 ]
9206
9207
12353
12359
12360
16820
[ 162 ]
8738
8844
8846
8848
9203
9231
10227
11336
11972
12346
12352
12363
12365
12414
16819
16830
[ 163 ]
4366
4499
4558
4770
8732
8739
8847
8849
8851
8852
8855
9204
9205
9209
9214
9431
10226
10758
10833
10834
11440
11845
11846
11912
11971
12063
12329
12330
12336
12354
12356
12361
12362
12364
12410
12411
12413
12415
12537
16816
16837
20476
[ 164 ]
4337
4360
4363
4365
4372
4403
4404
4405
4411
4417
4418
4432
4435
4437
4503
4552
4557
4559
4896
8723
8725
8730
8731
8735
8736
8805
8819
8820
8821
8822
8824
8853
8854
8859
8976
8979
8980
8981
9164
9178
9190
9192
9198
9199
9200
9201
9202
9213
9232
9415
9425
9426
9433
10708
10731
10742
10747
10749
10750
10831
10835
10842
10886
10892
10893
10918
10919
10937
10948
10972
10976
10990
11334
11339
11342
11439
11662
11663
11675
11676
11734
11781
11832
11833
11843
11844
11847
11848
11850
11851
11860
11863
11864
11880
11907
11913
11915
11916
11970
11973
11975
11977
12025
12048
12053
12077
12083
12086
12088
12089
12092
12093
12095
12100
12102
12121
12150
12167
12168
12171
12174
12178
12180
12183
12184
12195
12216
12255
12284
12295
12323
12324
12347
12366
12406
12408
12409
12412
12424
12425
12426
12427
12431
12469
12626
16805
16809
16814
17094
20368
20373
20474
20477
20478
21394
[ 165 ]
4259
4303
4357
4364
4369
4375
4376
4397
4402
4413
4415
4424
4426
4458
4463
4467
4468
4469
4486
4490
4507
4508
4526
4551
4560
4632
4766
4769
5793
8720
8722
8733
8810
8817
8823
8828
8831
8856
8858
9177
9189
9197
9216
9217
9258
9423
9427
9436
9438
9471
9472
9473
9474
10093
10095
10110
10111
10198
10223
10228
10288
10289
10291
10294
10296
10299
10696
10720
10746
10761
10802
10803
10806
10820
10830
10832
10836
10837
10840
10846
10882
10884
10889
10894
10914
10915
10916
10917
10920
10923
10926
10927
10934
10936
10938
10939
10940
10970
10971
10978
10979
10988
10991
11002
11004
11008
11009
11014
11120
11170
11174
11204
11327
11347
11375
11389
11395
11410
11412
11431
11445
11522
11643
11645
11647
11660
11665
11667
11668
11682
11683
11684
11685
11686
11687
11688
11708
11728
11744
11745
11769
11782
11812
11813
11815
11834
11836
11838
11849
11852
11858
11859
11867
11868
11877
11879
11881
11883
11909
11911
11917
11918
11919
11960
11969
11996
12015
12026
12027
12029
12040
12050
12051
12058
12059
12060
12061
12067
12076
12081
12082
12084
12096
12098
12099
12101
12107
12117
12132
12145
12146
12148
12149
12151
12152
12155
12165
12170
12175
12179
12182
12185
12187
12194
12199
12203
12215
12217
12250
12253
12268
12271
12280
12283
12308
12325
12331
12337
12342
12343
12350
12368
12369
12386
12391
12405
12407
12416
12417
12423
12428
12429
12432
12433
12434
12452
12454
12458
12464
12466
12468
12471
12479
12499
12502
12534
12536
12542
12620
12621
13100
13101
14543
16792
17095
17096
18238
19609
20420
20472
20473
20479
20481
20482
20507
20550
20580
21393
21470
21537
21538
21572
21573
21704
21821
22007
[ 166 ]
3496
3518
4085
4297
4299
4334
4336
4338
4345
4347
4373
4383
4394
4395
4400
4406
4412
4419
4421
4425
4429
4440
4443
4460
4466
4502
4509
4553
4554
4556
4562
4563
4634
4636
4777
4779
4780
4895
4899
4900
4925
4976
4978
4979
4980
5402
5404
5444
5448
5451
5457
5460
5635
5784
5789
5790
5794
5795
5796
5799
5804
5937
6080
6099
6102
6131
6330
8714
8719
8728
8729
8747
8778
8780
8781
8786
8789
8791
8806
8807
8809
8815
8825
8826
8830
9180
9324
9325
9361
9371
9394
9486
9519
9794
9908
9910
9913
9914
10009
10065
10068
10070
10081
10083
10084
10087
10088
10090
10096
10097
10109
10112
10170
10174
10206
10236
10290
10337
10608
10609
10629
10641
10647
10657
10712
10772
10777
10779
10784
10795
10799
10800
10801
10807
10809
10821
10828
10829
10838
10843
10857
10880
10881
10885
10912
10921
10922
10924
10925
10931
10932
10933
10942
10943
10947
10949
10950
10955
10957
10961
10962
10964
10980
10981
10986
10987
10995
10997
11006
11007
11010
11011
11012
11015
11041
11075
11079
11088
11113
11114
11144
11150
11179
11199
11251
11257
11259
11260
11323
11325
11387
11390
11391
11408
11409
11418
11420
11437
11471
11472
11498
11506
11508
11521
11534
11542
11624
11625
11641
11655
11659
11666
11669
11671
11677
11681
11692
11693
11696
11701
11704
11707
11716
11729
11740
11743
11746
11749
11751
11754
11755
11759
11760
11762
11763
11772
11773
11774
11775
11776
11777
11778
11779
11783
11785
11788
11791
11793
11805
11806
11811
11814
11816
11818
11819
11837
11841
11853
11854
11856
11857
11861
11869
11871
11876
11878
11882
11886
11889
11906
11914
11940
11949
11951
11954
11958
11959
11966
11967
11968
11978
11979
11982
12003
12006
12014
12016
12017
12030
12039
12049
12055
12066
12071
12079
12106
12119
12120
12122
12123
12124
12127
12128
12130
12131
12137
12143
12144
12147
12156
12157
12164
12169
12177
12181
12188
12192
12197
12198
12201
12202
12204
12205
12208
12209
12213
12218
12225
12233
12242
12251
12256
12260
12267
12270
12273
12282
12287
12290
12296
12297
12301
12310
12311
12312
12317
12333
12367
12370
12381
12382
12383
12390
12394
12398
12399
12403
12404
12418
12420
12421
12422
12430
12437
12449
12456
12457
12459
12463
12465
12470
12472
12473
12477
12478
12486
12498
12501
12509
12538
12544
12592
13098
13099
13102
13106
13406
13443
13794
14106
14182
14210
14229
14239
14240
14245
14252
14253
14280
14281
14326
14529
14538
14554
14567
15048
15270
15280
15327
16793
16794
16795
16798
16810
16813
16842
17097
17578
17579
17580
18237
18242
18243
18245
18251
18887
19230
19237
19239
19703
20370
20371
20403
20469
20471
20480
20483
20486
20487
20511
20512
20513
20529
20543
20544
20551
20554
20579
20582
20594
21360
21392
21571
21593
21596
21603
21703
22003
22008
22011
22013
22878
29372
29377
[ 167 ]
3348
3986
4079
4081
4083
4105
4220
4256
4263
4272
4295
4331
4385
4387
4388
4389
4393
4398
4399
4409
4445
4446
4520
4611
4629
4633
4754
4764
4778
4781
4786
4803
4872
4904
4975
4977
4997
4998
5010
5036
5267
5305
5306
5382
5407
5429
5431
5432
5437
5445
5446
5454
5456
5458
5459
5462
5486
5489
5491
5621
5637
5656
5704
5728
5759
5769
5788
5792
5797
5798
5801
5803
5806
5807
5852
5884
5893
5905
5945
5951
6057
6074
6075
6097
6112
6113
6115
6132
6135
6136
6200
6220
6232
6312
6314
6315
6316
8202
8329
8706
8717
8750
8751
8752
8756
8757
8758
8762
8764
8766
8768
8779
8787
8788
8799
8801
9319
9321
9370
9446
9468
9470
9475
9488
9489
9517
9841
9899
9904
9905
10004
10008
10012
10054
10055
10061
10072
10073
10077
10079
10089
10091
10106
10107
10133
10171
10172
10173
10183
10195
10207
10216
10246
10249
10250
10256
10269
10280
10282
10283
10286
10287
10297
10298
10309
10317
10542
10557
10563
10573
10635
10643
10645
10650
10653
10659
10678
10694
10705
10710
10775
10781
10786
10790
10791
10798
10808
10810
10811
10814
10815
10816
10817
10819
10822
10823
10851
10854
10856
10858
10883
10895
10896
10903
10907
10908
10911
10913
10929
10930
10941
10945
10954
10958
10960
10963
11034
11042
11050
11052
11054
11073
11089
11100
11104
11108
11111
11164
11172
11180
11182
11198
11216
11234
11249
11258
11263
11267
11296
11374
11388
11403
11404
11407
11419
11425
11426
11478
11483
11495
11497
11499
11513
11517
11518
11519
11527
11532
11572
11577
11581
11593
11595
11598
11626
11634
11640
11648
11652
11654
11657
11658
11680
11695
11697
11699
11703
11722
11730
11731
11748
11756
11757
11758
11761
11765
11768
11771
11790
11792
11795
11796
11798
11799
11800
11802
11803
11807
11808
11809
11810
11822
11824
11826
11828
11829
11830
11855
11870
11874
11875
11884
11888
11890
11892
11893
11894
11896
11900
11904
11905
11926
11927
11942
11944
11947
11950
11952
11953
11963
11980
11983
11984
11987
11989
11990
11991
11993
11999
12000
12002
12004
12005
12008
12009
12010
12011
12019
12023
12024
12031
12035
12036
12037
12041
12044
12057
12074
12110
12115
12125
12135
12153
12154
12161
12190
12191
12206
12207
12211
12212
12221
12223
12224
12228
12235
12239
12241
12248
12257
12258
12262
12266
12269
12272
12278
12279
12286
12288
12292
12293
12300
12302
12304
12306
12307
12309
12318
12326
12338
12372
12373
12374
12376
12377
12378
12384
12387
12395
12397
12401
12419
12435
12436
12438
12444
12445
12460
12461
12474
12475
12476
12483
12495
12503
12506
12521
12522
12525
12529
12530
12532
12539
12540
12541
12545
12548
12557
12558
12561
12565
12570
12591
12596
12599
12618
12619
12955
13097
13104
13338
13378
13444
14086
14090
14102
14109
14118
14119
14177
14181
14216
14218
14223
14224
14231
14241
14243
14246
14248
14250
14261
14263
14270
14276
14283
14307
14320
14321
14323
14324
14328
14330
14335
14338
14522
14539
14545
14548
14565
14653
15083
15152
15153
15289
15332
15426
15857
15954
16799
16843
16850
17029
17030
17098
17099
17103
17572
17573
17574
17581
17666
18079
18081
18082
18087
18088
18090
18091
18092
18093
18095
18098
18132
18229
18236
18239
18271
18819
18831
18888
18974
19198
19228
19229
19234
19236
19241
19732
19875
19877
19881
19883
19949
19951
19987
20011
20018
20359
20362
20363
20380
20394
20395
20404
20419
20422
20423
20424
20425
20431
20465
20468
20488
20489
20492
20493
20494
20497
20510
20514
20524
20541
20542
20547
20553
20556
20558
20560
20570
20581
20584
20585
20586
20592
20599
20605
20651
21027
21334
21355
21361
21363
21371
21390
21395
21418
21440
21441
21461
21464
21465
21466
21471
21536
21539
21541
21552
21559
21570
21589
21591
21592
21595
21597
21598
21599
21601
21609
21631
21640
21642
21644
21647
21681
21690
21691
21693
21694
21699
21701
21708
21717
21718
21719
21720
21721
21726
21735
21745
21747
21785
21809
21814
21820
21982
21983
21985
21989
21993
21996
22002
22004
22009
22015
29379
[ 168 ]
3480
3502
3833
3835
3840
3983
3985
4040
4043
4080
4084
4088
4089
4091
4094
4095
4134
4154
4173
4174
4176
4184
4186
4190
4207
4217
4221
4223
4257
4264
4280
4382
4390
4450
4512
4519
4612
4621
4626
4627
4671
4673
4739
4749
4750
4760
4761
4762
4787
4804
4807
4808
4814
4816
4819
4820
4822
4824
4827
4828
4835
4841
4858
4859
4860
4873
4886
4902
4906
4919
4945
4947
4970
4974
4986
4989
4990
4991
4992
4993
4995
4999
5006
5012
5014
5038
5043
5206
5237
5252
5313
5363
5365
5383
5393
5406
5409
5428
5430
5436
5440
5441
5453
5490
5494
5517
5522
5599
5607
5609
5612
5625
5628
5636
5638
5639
5640
5641
5642
5644
5695
5702
5706
5716
5726
5731
5760
5761
5763
5766
5775
5782
5785
5808
5810
5811
5820
5827
5829
5844
5882
5885
5888
5889
5890
5897
5899
5918
5919
5939
5940
5942
5943
5948
5955
5957
5958
5959
5962
5966
6065
6066
6067
6079
6098
6103
6106
6117
6120
6122
6123
6124
6125
6133
6134
6139
6151
6206
6210
6214
6237
6305
6311
6313
6317
6369
6385
6403
6409
6410
6435
6444
6453
8332
8743
8759
8763
8775
8784
8792
9396
9447
9461
9462
9485
9490
9494
9495
9496
9501
9502
9503
9504
9505
9511
9518
9595
9842
9903
9978
10010
10013
10015
10019
10060
10062
10066
10076
10078
10099
10102
10104
10108
10114
10136
10145
10146
10148
10149
10158
10166
10167
10176
10180
10193
10201
10257
10260
10261
10278
10285
10308
10313
10315
10318
10320
10321
10322
10324
10325
10482
10484
10500
10541
10559
10630
10633
10636
10638
10651
10654
10662
10665
10687
10690
10693
10701
10711
10787
10789
10792
10813
10818
10849
10852
10855
10860
10862
10901
10909
10910
10953
10959
11024
11025
11036
11038
11039
11055
11058
11063
11064
11069
11090
11091
11102
11103
11106
11107
11109
11110
11112
11131
11132
11135
11136
11137
11145
11173
11189
11190
11191
11218
11232
11233
11245
11250
11268
11269
11275
11279
11298
11304
11320
11394
11406
11459
11460
11500
11505
11507
11515
11560
11568
11578
11580
11585
11586
11588
11597
11600
11615
11618
11620
11621
11623
11650
11679
11690
11698
11712
11717
11718
11720
11721
11752
11766
11789
11797
11801
11804
11823
11895
11897
11923
11924
11937
11943
11946
11956
11957
11961
11962
11965
11985
12007
12018
12022
12032
12043
12045
12046
12111
12112
12113
12138
12140
12158
12159
12160
12220
12222
12226
12231
12234
12240
12243
12263
12264
12275
12276
12291
12298
12299
12305
12371
12396
12402
12440
12441
12490
12493
12505
12513
12515
12523
12524
12526
12527
12546
12547
12553
12562
12566
12587
12590
12597
12598
12782
12784
12922
13340
13359
13374
13404
13431
13432
13445
13468
13469
13703
13758
13763
13771
13829
14087
14088
14091
14093
14110
14114
14213
14219
14221
14226
14232
14233
14235
14273
14277
14284
14306
14318
14322
14325
14332
14333
14334
14336
14349
14352
14383
14557
14658
14935
14991
14996
15030
15031
15061
15070
15093
15141
15246
15253
15291
15295
15391
15403
15408
15422
15428
15729
15731
15853
15856
15858
15859
15868
15955
15976
16125
16126
16131
16202
16780
16781
16797
16860
16917
16958
16989
17031
17032
17086
17312
17313
17315
17317
17406
17565
17575
17576
17601
17602
17607
17630
17641
17642
17645
17660
17674
17677
17678
17974
17983
18066
18071
18073
18089
18094
18097
18100
18103
18118
18221
18230
18240
18269
18270
18782
18783
18789
18813
18815
18821
18822
18830
18833
18876
18889
18897
18977
19147
19197
19231
19238
19243
19258
19262
19268
19277
19347
19539
19595
19701
19706
19864
19866
19880
19885
19922
19929
19936
19937
19938
19939
19942
19948
19955
19963
19966
19969
19976
19986
19998
20003
20004
20005
20078
20122
20123
20318
20319
20357
20364
20381
20386
20396
20405
20411
20413
20427
20432
20455
20490
20496
20502
20504
20517
20522
20525
20546
20548
20549
20559
20561
20563
20565
20583
20591
20595
20598
20603
20606
20607
20608
20610
20640
20659
20660
20714
21084
21089
21102
21163
21197
21213
21333
21352
21359
21362
21370
21383
21387
21388
21396
21404
21413
21443
21444
21457
21469
21472
21473
21476
21481
21482
21513
21517
21529
21530
21532
21534
21543
21544
21545
21553
21554
21558
21574
21576
21580
21582
21590
21594
21600
21602
21604
21606
21607
21635
21641
21645
21649
21661
21678
21684
21687
21692
21696
21697
21700
21712
21715
21727
21734
21741
21742
21743
21744
21746
21773
21776
21777
21778
21782
21798
21800
21813
21815
21816
21839
21932
21955
21960
21961
21970
21987
21990
21995
21998
22028
22040
22052
22086
22097
22156
22160
22161
22418
22462
22463
23816
28531
28752
28757
29059
29062
29063
29071
29305
43128
43130
[ 169 ]
3457
3459
3467
3477
3482
3522
3836
3973
3976
3982
3984
4023
4025
4041
4051
4052
4077
4078
4092
4093
4096
4103
4108
4109
4111
4133
4149
4150
4155
4158
4164
4165
4170
4172
4175
4181
4182
4183
4192
4204
4205
4234
4239
4241
4248
4249
4250
4268
4277
4287
4380
4391
4617
4619
4620
4639
4641
4667
4670
4672
4688
4692
4731
4742
4744
4759
4793
4794
4798
4811
4813
4830
4842
4862
4875
4881
4930
4948
4949
4962
4969
4984
4988
5005
5016
5035
5037
5118
5123
5126
5128
5132
5143
5180
5201
5202
5222
5235
5257
5268
5283
5286
5308
5364
5370
5375
5395
5399
5411
5419
5420
5423
5435
5473
5475
5488
5496
5497
5502
5503
5508
5509
5519
5521
5529
5537
5541
5542
5546
5547
5548
5554
5558
5588
5600
5608
5615
5616
5631
5643
5645
5646
5647
5648
5650
5654
5671
5680
5686
5688
5696
5700
5701
5707
5712
5722
5729
5739
5740
5742
5747
5758
5767
5768
5773
5776
5777
5780
5781
5818
5821
5828
5830
5838
5840
5853
5854
5860
5861
5871
5872
5874
5881
5887
5891
5892
5896
5902
5907
5911
5917
5924
5929
5931
5947
5950
6054
6055
6061
6062
6072
6073
6091
6121
6127
6137
6250
6277
6295
6308
6319
6333
6360
6381
6384
6386
6399
6408
6412
6434
6445
6446
6454
6455
6471
6474
6476
6484
7989
8205
8296
8298
8316
8318
8328
8413
8663
8664
8665
8671
8688
8690
8698
8704
8973
9268
9269
9318
9322
9454
9492
9507
9510
9523
9598
9758
9902
10016
10064
10074
10103
10120
10121
10125
10128
10129
10142
10143
10147
10150
10154
10165
10177
10178
10182
10184
10185
10186
10187
10190
10191
10196
10203
10204
10209
10240
10271
10302
10319
10486
10634
10667
10686
10691
10700
10704
10788
10794
10864
10874
10878
10879
10898
10899
11026
11028
11029
11030
11056
11057
11060
11061
11065
11084
11093
11095
11096
11128
11130
11207
11241
11242
11243
11306
11468
11469
11470
11501
11514
11530
11545
11550
11551
11557
11565
11566
11569
11570
11573
11574
11604
11606
11607
11617
11622
11767
11821
11898
11899
11902
11928
11932
11935
12245
12246
12247
12528
12550
12551
12556
12564
12574
12577
12580
12588
12593
12595
12603
12604
12609
12647
12652
12659
12661
12662
12781
12783
12785
12786
12789
12810
12923
12928
12940
12953
12981
13005
13008
13015
13017
13018
13022
13756
13761
13762
13767
13768
13770
13777
13855
13887
14079
14107
14108
14113
14187
14191
14194
14207
14227
14259
14293
14296
14298
14309
14310
14312
14337
14345
14348
14350
14355
14358
14646
14647
14650
14668
14669
14905
14933
14936
14939
14967
14997
15005
15018
15019
15029
15065
15071
15084
15129
15139
15147
15256
15258
15262
15288
15290
15294
15320
15335
15344
15389
15392
15401
15412
15420
15433
15436
15456
15457
15458
15459
15461
15462
15463
15721
15847
15850
15855
15863
15907
15913
15921
15947
15949
15959
16031
16034
16050
16084
16121
16128
16132
16133
16178
16198
16200
16519
16593
16602
16614
16615
16776
16779
16854
16856
16857
16864
16945
16959
16979
16985
16988
17017
17018
17020
17021
17033
17035
17037
17038
17087
17104
17280
17281
17297
17298
17305
17321
17379
17385
17389
17567
17571
17582
17583
17584
17587
17588
17598
17600
17604
17608
17611
17612
17627
17637
17638
17639
17640
17643
17655
17656
17658
17676
17682
17702
17880
17885
18069
18072
18078
18085
18133
18161
18177
18178
18206
18208
18211
18217
18220
18268
18764
18766
18770
18771
18773
18784
18787
18792
18795
18814
18816
18820
18823
18824
18891
18896
18899
18931
18938
18944
18946
18947
18959
18969
18971
18973
18996
18999
19168
19195
19204
19224
19227
19244
19246
19290
19304
19323
19344
19346
19350
19500
19531
19533
19541
19542
19545
19551
19591
19593
19613
19696
19862
19863
19874
19882
19888
19896
19940
19943
19945
19946
19952
19983
19988
19991
19992
19996
19997
19999
20016
20025
20124
20135
20168
20169
20173
20339
20351
20352
20355
20358
20382
20383
20384
20389
20390
20393
20397
20398
20399
20409
20414
20429
20433
20434
20453
20454
20456
20464
20466
20498
20501
20505
20506
20516
20526
20527
20533
20540
20562
20567
20574
20577
20589
20590
20602
20604
20611
20617
20622
20623
20624
20626
20628
20629
20633
20637
20641
20642
20656
20657
20713
20723
20731
21029
21041
21052
21079
21082
21085
21090
21098
21101
21175
21179
21193
21194
21195
21203
21204
21210
21211
21215
21234
21252
21307
21309
21328
21332
21335
21337
21354
21356
21358
21369
21374
21384
21397
21401
21405
21407
21419
21424
21425
21426
21439
21451
21474
21480
21488
21515
21519
21528
21531
21540
21547
21548
21549
21550
21557
21560
21562
21563
21564
21566
21569
21577
21578
21579
21585
21586
21605
21610
21613
21618
21629
21634
21636
21637
21643
21646
21648
21655
21658
21660
21662
21664
21669
21671
21677
21683
21686
21688
21689
21722
21723
21725
21731
21732
21748
21753
21762
21767
21775
21780
21783
21787
21791
21806
21817
21818
21840
21845
21925
21929
21933
21958
21969
21972
21973
21976
21978
21981
21997
21999
22000
22020
22027
22051
22057
22107
22109
22131
22138
22169
22305
22307
22310
22312
22364
22404
22405
22414
22419
22565
22567
22574
22589
22590
22595
22740
23117
23311
23825
23826
25760
28530
28537
28747
28748
28756
28793
29049
29060
29061
29064
29066
29136
29308
29310
29394
29757
30421
42927
42932
43117
43137
46986
[ 170 ]
3465
3837
3975
4030
4031
4033
4034
4037
4038
4042
4057
4061
4063
4068
4069
4075
4098
4115
4116
4118
4157
4159
4160
4166
4167
4197
4198
4232
4243
4245
4246
4247
4276
4381
4628
4638
4694
4695
4696
4699
4701
4704
4734
4736
4737
4745
4795
4809
4815
4818
4823
4836
4869
4871
4874
4876
4880
4883
4890
4951
4961
4965
4968
5003
5004
5029
5030
5034
5098
5105
5131
5175
5178
5184
5248
5291
5316
5332
5334
5362
5422
5424
5425
5427
5465
5472
5477
5478
5479
5480
5481
5500
5501
5504
5510
5511
5512
5515
5516
5520
5527
5528
5531
5536
5538
5543
5549
5550
5553
5555
5557
5559
5563
5572
5575
5576
5578
5586
5587
5594
5595
5602
5658
5660
5669
5670
5673
5674
5681
5682
5687
5689
5690
5699
5710
5718
5719
5720
5723
5724
5741
5771
5772
5779
5814
5817
5819
5823
5824
5826
5832
5836
5846
5847
5851
5859
5862
5863
5865
5866
5869
5870
5878
5879
5880
5906
5926
5930
5963
6059
6084
6085
6092
6094
6095
6096
6107
6119
6158
6163
6199
6249
6251
6252
6297
6342
6356
6358
6378
6388
6391
6398
6416
6432
6433
6437
6447
6452
6456
6457
6467
6468
6481
6486
6500
6509
7992
8299
8334
8338
8414
8666
8670
8675
8755
9272
9281
9450
9456
9500
9514
9515
9521
9524
9525
9990
10115
10116
10119
10123
10126
10134
10135
10137
10159
10179
10276
10277
10301
10488
10655
10660
11031
11066
11097
11127
11129
11238
11456
11457
11463
11464
11465
11466
11603
11608
11929
11934
12517
12519
12554
12582
12594
12644
12646
12648
12650
12657
12658
12663
12665
12677
12686
12689
12762
12764
12778
12787
12800
12807
12808
12854
12856
12879
12883
12884
12888
12889
12891
12925
12927
12929
12939
12959
12975
13003
13006
13007
13016
13020
13021
13371
13463
13760
13764
13772
13776
13856
13917
14018
14019
14021
14026
14034
14039
14046
14124
14176
14189
14197
14208
14267
14286
14288
14290
14308
14313
14315
14341
14342
14344
14351
14354
14356
14360
14416
14648
14651
14662
14666
14667
14772
14785
14798
14810
14812
14822
14878
14881
14887
14899
14910
15073
15076
15078
15087
15098
15102
15130
15133
15137
15138
15140
15145
15146
15150
15247
15265
15267
15277
15292
15312
15318
15319
15321
15323
15324
15337
15347
15349
15393
15394
15418
15419
15429
15430
15431
15452
15454
15472
15490
15594
15613
15616
15705
15706
15707
15718
15719
15726
15730
15854
15860
15867
15908
15909
15910
15911
15915
15916
15925
15929
15940
15945
15971
15987
15988
16056
16057
16083
16090
16099
16100
16117
16119
16127
16141
16174
16195
16197
16397
16400
16506
16541
16565
16613
16616
16618
16633
16754
16765
16772
16773
16775
16957
16962
16974
16980
16990
16992
16993
16994
17009
17022
17023
17024
17025
17036
17039
17043
17048
17049
17075
17084
17088
17207
17285
17296
17299
17319
17320
17325
17329
17333
17336
17354
17355
17380
17388
17391
17564
17568
17570
17585
17589
17597
17610
17613
17614
17623
17624
17625
17628
17629
17632
17636
17652
17654
17679
17688
17690
17691
17700
17881
17884
17887
17892
17897
17903
17979
18058
18059
18075
18156
18157
18158
18160
18165
18168
18170
18173
18176
18186
18189
18205
18209
18213
18215
18219
18478
18516
18519
18529
18531
18627
18629
18768
18769
18785
18791
18807
18809
18810
18811
18825
18846
18898
18901
18907
18915
18930
18949
18951
18952
18953
18957
18958
18961
18963
18982
18984
18985
18997
19003
19004
19005
19006
19007
19008
19052
19083
19134
19136
19140
19143
19146
19152
19153
19156
19161
19183
19200
19201
19205
19207
19211
19214
19216
19247
19253
19256
19257
19263
19269
19276
19287
19288
19289
19298
19303
19307
19320
19326
19415
19473
19476
19503
19528
19529
19535
19552
19553
19561
19567
19571
19575
19578
19582
19583
19586
19592
19600
19695
19859
19872
19895
19911
19912
19925
19926
19944
19993
19994
19995
20010
20113
20117
20126
20131
20155
20165
20166
20170
20317
20340
20345
20346
20347
20412
20441
20451
20457
20458
20535
20576
20613
20618
20620
20627
20631
20632
20634
20643
20647
20654
20658
20667
20673
20679
20698
20703
20706
20711
20715
20718
20768
20770
20778
21017
21025
21032
21037
21038
21083
21088
21096
21099
21104
21105
21107
21133
21138
21159
21165
21167
21172
21182
21184
21185
21191
21199
21205
21208
21209
21218
21247
21251
21308
21310
21311
21312
21324
21327
21329
21330
21331
21341
21351
21357
21366
21373
21375
21381
21382
21386
21399
21400
21402
21403
21406
21409
21411
21412
21414
21420
21421
21422
21423
21427
21438
21446
21450
21453
21458
21489
21491
21520
21521
21522
21527
21546
21556
21565
21567
21623
21624
21625
21627
21632
21633
21651
21653
21654
21657
21659
21667
21668
21670
21676
21724
21729
21733
21749
21759
21764
21765
21771
21772
21781
21790
21792
21794
21796
21924
21928
21934
21974
21975
21977
21979
21984
22017
22018
22019
22021
22026
22030
22042
22048
22061
22087
22091
22095
22098
22099
22102
22116
22128
22130
22213
22269
22277
22285
22286
22309
22316
22317
22321
22333
22336
22379
22400
22412
22468
22470
22472
22540
22554
22560
22562
22563
22564
22568
22570
22579
22584
22712
22715
22739
22741
22936
22939
23112
23113
23116
23119
23281
23310
23326
23454
23472
23518
23530
23659
23830
24115
28536
28612
28658
28732
28759
28760
28762
28790
28794
29056
29058
29070
29072
29224
29226
29269
29303
29360
29613
29649
29667
29686
29718
29725
30022
30072
30306
30343
30344
30351
30424
31072
42163
42189
42929
42933
43066
43068
43113
43133
43134
43135
44470
[ 171 ]
3462
3974
4054
4055
4058
4065
4067
4070
4071
4074
4114
4119
4132
4152
4153
4193
4200
4231
4233
4236
4237
4312
4812
4870
4944
5020
5031
5033
5061
5071
5092
5102
5176
5199
5204
5209
5344
5345
5349
5350
5351
5415
5416
5417
5418
5466
5482
5507
5526
5544
5560
5570
5577
5585
5589
5591
5652
5661
5662
5678
5679
5685
5698
5748
5756
5757
5822
5834
5837
5842
5843
5845
5849
5855
5856
5857
5873
5876
5877
6296
6371
6382
6389
6390
6392
6393
6395
6396
6407
6415
6430
6458
6463
6466
6501
6502
7988
8293
8307
8312
8333
8354
8392
8396
8415
8425
8669
9381
10117
10118
10124
10275
10661
11094
11564
11931
12581
12583
12610
12639
12649
12653
12678
12682
12698
12713
12763
12792
12795
12815
12816
12876
12878
12881
12882
12885
12886
12892
12893
12899
12900
12902
12904
12906
12911
12926
12937
12952
12973
12978
12985
12988
12989
13002
13023
13972
14020
14022
14024
14035
14036
14037
14038
14040
14045
14082
14287
14289
14301
14316
14343
14346
14418
14631
14664
14762
14766
14774
14775
14777
14780
14783
14784
14786
14800
14803
14809
14811
14828
14883
14885
14893
14897
14901
14903
14930
14938
14957
14973
14975
14978
14984
15011
15012
15020
15021
15022
15075
15077
15086
15092
15094
15099
15111
15132
15169
15172
15177
15249
15311
15341
15342
15346
15417
15448
15473
15489
15492
15595
15598
15614
15618
15682
15699
15708
15709
15711
15716
15723
15724
15843
15852
15917
15918
15919
15931
15936
15937
15943
15960
15964
16005
16027
16040
16046
16049
16059
16066
16067
16079
16086
16088
16091
16092
16107
16108
16110
16112
16118
16136
16143
16169
16172
16173
16192
16208
16396
16399
16402
16480
16485
16537
16538
16540
16566
16567
16596
16611
16612
16619
16624
16625
16725
16726
16752
16868
16898
16899
16961
16967
16971
16995
16996
17004
17010
17011
17026
17044
17045
17046
17052
17053
17079
17082
17083
17292
17302
17324
17327
17343
17345
17350
17353
17382
17383
17405
17591
17592
17594
17633
17649
17650
17657
17687
17693
17701
17877
17879
17886
17893
17899
17900
17902
17904
17905
18076
18150
18153
18166
18169
18175
18179
18180
18184
18185
18187
18190
18191
18199
18201
18202
18212
18324
18430
18433
18434
18437
18458
18463
18465
18467
18475
18505
18518
18521
18523
18628
18776
18778
18804
18808
18829
18841
18842
18892
18893
18900
18906
18908
18909
18910
18914
18923
18928
18950
18954
18964
18965
18968
18981
18983
18987
18994
19009
19040
19051
19099
19118
19135
19137
19151
19157
19158
19206
19210
19251
19254
19264
19292
19301
19302
19306
19340
19345
19424
19484
19485
19517
19520
19523
19524
19536
19537
19562
19565
19570
19572
19577
19602
19868
19871
19873
19905
19915
19923
20030
20076
20081
20107
20108
20109
20111
20112
20115
20116
20128
20129
20130
20140
20163
20314
20332
20337
20338
20342
20349
20350
20354
20388
20449
20463
20614
20615
20621
20630
20664
20665
20666
20668
20674
20678
20683
20686
20688
20695
20696
20697
20702
20710
20712
20720
20722
21009
21019
21022
21024
21035
21040
21042
21046
21050
21053
21074
21076
21078
21080
21081
21091
21092
21093
21095
21103
21106
21111
21116
21124
21131
21132
21134
21137
21139
21154
21170
21171
21183
21190
21198
21206
21207
21217
21219
21223
21232
21233
21237
21242
21244
21253
21256
21272
21274
21282
21283
21287
21289
21290
21291
21295
21296
21297
21299
21302
21303
21313
21315
21316
21318
21320
21321
21322
21342
21345
21346
21349
21365
21376
21377
21378
21379
21429
21430
21431
21433
21436
21448
21449
21452
21454
21455
21524
21525
21526
21614
21617
21619
21622
21652
21656
21730
21760
21763
21766
21768
21793
21926
21927
21947
21948
21964
21965
21966
21967
21968
22032
22044
22060
22063
22082
22084
22085
22088
22129
22224
22262
22263
22273
22275
22291
22292
22303
22331
22339
22358
22382
22402
22407
22408
22444
22445
22448
22451
22464
22471
22505
22512
22514
22521
22536
22538
22549
22551
22559
22599
22648
22738
22742
22744
22940
22952
22953
22956
23088
23109
23115
23118
23276
23280
23295
23304
23306
23307
23309
23329
23409
23449
23455
23468
23470
23479
23514
23519
23544
23829
24121
24532
24537
24554
25812
26630
26757
28604
28608
28614
28637
28653
28660
28731
28735
28742
28749
28783
28784
28788
28846
28988
29046
29065
29075
29111
29117
29118
29219
29311
29602
29652
29882
29988
30153
30177
30231
30253
30346
30418
30419
30420
30423
30425
30430
30438
31065
31069
31071
31146
32574
32575
35780
41214
41387
41615
41765
42012
42080
42084
42127
42131
42137
42152
42160
42162
42190
42289
42725
42747
42752
42754
42755
42778
42915
42928
42934
42935
42941
42945
42949
42952
42953
43022
43082
43114
43136
46264
46985
[ 172 ]
3464
4056
4060
4066
4073
4130
4151
5022
5023
5027
5093
5096
5097
5189
5194
5196
5321
5330
5352
5561
5562
5568
5571
5581
5675
5683
5750
5751
5755
5835
6063
6431
6482
6490
6491
6494
6504
6507
6508
8288
8305
8308
8339
8393
8394
8395
8416
8419
8420
8422
8667
9312
12578
12585
12674
12680
12684
12687
12704
12706
12708
12793
12797
12802
12873
12875
12880
12895
12903
12912
12943
12951
12969
12972
12980
12982
12984
12999
13001
13229
14025
14043
14740
14750
14770
14778
14779
14787
14788
14794
14799
14826
14844
14848
14902
14914
14925
14974
14977
14980
14983
15013
15079
15085
15107
15109
15110
15112
15114
15115
15122
15123
15136
15298
15300
15301
15308
15309
15385
15451
15474
15475
15480
15592
15596
15609
15610
15620
15621
15624
15696
15697
15714
15717
15742
15923
15924
15927
15928
15932
15980
15990
16001
16022
16041
16042
16043
16047
16048
16051
16052
16055
16058
16060
16063
16065
16071
16075
16077
16078
16089
16109
16142
16176
16471
16472
16474
16479
16524
16531
16542
16547
16551
16552
16568
16600
16621
16626
16629
16632
16634
16636
16637
16657
16660
16686
16757
16762
16763
16872
16877
16878
16880
16970
16999
17007
17054
17060
17063
17065
17066
17077
17078
17080
17269
17270
17271
17275
17278
17287
17288
17346
17348
17349
17357
17364
17372
17376
17377
17381
17393
17400
17404
17544
17545
17596
17615
17651
17890
17894
17907
18136
18154
18183
18188
18194
18197
18203
18204
18429
18435
18442
18444
18455
18459
18461
18464
18468
18470
18511
18517
18520
18797
18826
18840
18903
18905
18911
18929
18956
18980
18995
19010
19013
19036
19044
19049
19054
19056
19128
19162
19164
19213
19250
19252
19273
19291
19293
19335
19339
19463
19468
19478
19482
19498
19505
19506
19510
19513
19518
19521
19522
19527
19549
19573
19849
19891
19906
19909
19919
20070
20136
20138
20149
20161
20176
20233
20323
20327
20328
20329
20341
20348
20459
20460
20462
20619
20663
20669
20672
20675
20684
20687
20689
20692
20717
20719
20748
20775
20807
20808
20845
20846
21007
21008
21010
21011
21020
21031
21034
21044
21045
21048
21051
21054
21056
21057
21060
21067
21068
21069
21070
21071
21072
21073
21075
21114
21117
21118
21120
21122
21125
21135
21136
21140
21141
21142
21153
21168
21169
21186
21188
21189
21200
21224
21226
21228
21254
21263
21268
21270
21278
21279
21280
21285
21292
21293
21319
21339
21343
21347
21348
21380
21616
21621
21788
21837
21950
22075
22078
22117
22118
22119
22120
22122
22123
22211
22231
22250
22295
22296
22308
22320
22322
22323
22326
22332
22357
22434
22435
22437
22446
22447
22449
22450
22453
22457
22465
22467
22478
22481
22486
22488
22489
22507
22510
22511
22513
22515
22524
22525
22530
22531
22533
22535
22537
22542
22545
22548
22607
22669
22670
22673
22690
22743
22747
22802
22850
22924
22925
22929
22932
22933
22945
22947
22948
22950
22951
22959
22960
23086
23089
23104
23107
23114
23120
23121
23237
23247
23248
23250
23275
23279
23283
23294
23299
23302
23305
23315
23316
23317
23325
23415
23480
23509
23517
23524
23534
23541
23568
23571
23573
23575
23583
23685
23720
23728
23762
23779
23807
23809
23835
23885
23887
23934
23941
24124
24127
24133
24144
24162
24178
24181
24209
24522
24523
24533
25813
26543
28240
28579
28580
28581
28592
28596
28602
28605
28615
28635
28636
28739
28740
28761
28765
28766
28771
28775
28776
28780
28782
28789
28820
28849
28867
28868
28958
28959
28974
28987
29067
29074
29108
29113
29182
29271
29276
29314
29399
29435
29541
29573
29639
29719
29720
29812
29815
29821
29825
29881
29974
29987
30028
30070
30103
30150
30188
30225
30226
30228
30250
30252
30255
30262
30264
30290
30303
30329
30417
30431
30432
30433
30436
30440
30649
31034
31035
31036
31037
31049
31050
31052
31053
31054
31055
31061
31599
31944
32477
34961
40677
40696
41074
41076
41195
41196
41215
41378
41404
41408
41409
41484
41485
41693
41797
41800
41814
41833
41835
42011
42013
42014
42027
42077
42079
42085
42087
42100
42103
42116
42123
42128
42129
42130
42134
42149
42151
42154
42156
42158
42170
42211
42212
42301
42302
42304
42478
42480
42601
42719
42720
42731
42732
42753
42766
42777
42802
42812
42814
42815
42817
42870
42879
42882
42908
42911
42912
42913
42914
42916
42920
42931
42939
42940
42942
42947
42950
42951
43023
43024
43025
43050
43051
43052
43065
43081
43084
43116
43163
43164
44164
44505
44506
45678
46265
46269
46270
46317
46931
46988
46998
47002
47515
59113
[ 173 ]
4122
4123
4124
4125
4126
4954
5564
5567
5676
5684
5752
6421
6465
8423
8433
8445
8446
12669
12679
12691
12694
12700
12711
12857
12894
12896
12897
12944
12945
12946
12948
12950
12967
12968
12992
12994
12995
14032
14739
14782
14789
14790
14804
14805
14807
14808
14843
14845
14847
14849
14917
14928
15104
15105
15116
15120
15125
15126
15134
15299
15370
15589
15591
15606
15619
15935
15991
15994
15999
16006
16020
16025
16026
16053
16074
16076
16105
16113
16290
16293
16294
16296
16297
16298
16301
16302
16316
16318
16389
16390
16393
16476
16486
16492
16493
16526
16528
16556
16576
16622
16641
16644
16654
16656
16705
17003
17056
17058
17061
17062
17064
17068
17069
17071
17273
17374
17399
17402
17595
17906
18139
18193
18428
18456
18525
18526
18920
18922
18988
18990
19012
19014
19294
19295
19417
19460
19465
19470
19471
19472
19483
19514
19564
20322
20324
20325
20448
20691
20796
20797
20844
21006
21021
21055
21066
21119
21126
21127
21129
21145
21146
21147
21157
21221
21225
21229
21230
21243
21245
21255
21258
21259
21265
21266
21267
21281
21301
22038
22045
22072
22074
22077
22210
22302
22455
22475
22480
22483
22485
22490
22497
22499
22500
22501
22503
22509
22516
22519
22526
22527
22558
22654
22655
22682
22745
22746
22790
22838
22923
22926
22927
22931
22941
23090
23140
23184
23187
23189
23201
23221
23236
23277
23278
23288
23289
23292
23293
23314
23318
23333
23345
23346
23348
23349
23350
23379
23403
23407
23411
23414
23429
23469
23504
23512
23522
23533
23536
23547
23549
23550
23569
23578
23579
23598
23603
23604
23614
23721
23734
23780
23782
23804
23806
23833
23836
23840
23845
23849
23888
23891
23923
24120
24158
24176
24535
24536
24557
26386
26633
26637
28066
28243
28253
28457
28524
28589
28593
28597
28598
28600
28601
28607
28634
28641
28642
28643
28691
28699
28700
28718
28725
28730
28767
28768
28779
28808
28961
28963
28964
28989
28990
28991
28992
28998
29011
29014
29018
29019
29029
29031
29131
29215
29222
29225
29281
29397
29400
29606
29744
29804
29946
29952
29954
29964
29965
29991
29996
30002
30004
30006
30016
30127
30216
30249
30251
30254
30257
30259
30288
30371
30394
30395
30398
30416
30434
30452
30539
30754
30788
31007
31021
31038
31047
31051
31075
31080
31250
31253
31279
31281
31564
31622
32017
32028
32036
32108
32123
32170
32182
32184
32186
32188
32189
32190
32191
32522
32528
32570
32581
32743
33512
35247
35777
35878
37396
38118
40387
40388
40488
40580
40583
40638
40639
40670
40673
40675
40678
40691
40692
40693
40697
40698
40699
40701
41072
41097
41107
41129
41199
41216
41219
41234
41236
41239
41242
41366
41380
41384
41389
41390
41391
41407
41410
41614
41621
41650
41694
41763
41770
41771
41778
41781
41799
41810
41817
41834
42010
42015
42016
42017
42075
42089
42101
42106
42108
42109
42111
42115
42118
42124
42132
42148
42155
42159
42197
42198
42199
42206
42209
42260
42261
42287
42292
42300
42305
42313
42316
42352
42427
42479
42563
42600
42635
42715
42733
42738
42764
42875
42878
42902
42906
42907
42909
42910
42917
42919
42937
42938
42944
42948
42954
42955
42991
43021
43028
43029
43039
43041
43042
43048
43057
43061
43070
43083
43085
43092
43094
43105
43106
43141
43381
43384
44226
44364
44475
44479
44486
44488
44930
45116
45580
46274
46279
46280
46374
46803
46994
46999
47024
50902
[ 174 ]
4121
4128
6506
8426
8558
12949
12970
14737
14791
14834
14835
14837
14913
14919
14920
14921
14981
14982
15015
15118
15127
15603
15608
15611
15996
16014
16054
16291
16295
16299
16300
16303
16305
16306
16310
16311
16312
16317
16388
16449
16489
16530
16628
16648
16661
16893
17059
17067
17362
17366
17373
17394
18431
18919
18991
19058
19419
19495
19512
20676
20820
20843
21004
21012
21013
21014
21062
21063
21065
21128
21143
21144
21261
21262
21271
21344
22036
22324
22329
22438
22476
22484
22528
22653
22681
22916
22917
22920
22921
22928
22930
23087
23100
23102
23133
23134
23135
23136
23142
23144
23186
23212
23213
23220
23223
23232
23238
23243
23246
23284
23285
23290
23291
23321
23372
23378
23384
23405
23416
23418
23425
23426
23430
23431
23432
23435
23507
23523
23535
23540
23562
23580
23585
23602
23693
23699
23714
23727
23791
23808
23846
23847
23870
23890
23892
23894
23921
23933
24050
24156
24165
24177
24179
24556
25451
25811
25814
26372
26373
26500
26510
26541
27171
28252
28360
28376
28462
28466
28543
28575
28628
28720
28769
28770
28772
28777
28877
28960
28965
28966
28969
28971
28975
28976
28978
28993
28997
29005
29006
29007
29015
29017
29020
29021
29025
29191
29197
29214
29278
29576
29638
29950
29979
29980
29981
29983
29984
29985
29992
30000
30003
30005
30041
30074
30146
30187
30198
30208
30293
30400
30401
30503
30581
30713
30714
30717
30726
30732
30741
30747
30748
30753
30782
30904
30988
30990
30993
30997
30999
31003
31020
31023
31032
31040
31233
31242
31475
31556
31570
31580
31603
31692
31702
31718
31720
31723
31751
31924
32018
32026
32027
32030
32031
32109
32111
32125
32134
32136
32139
32159
32161
32175
32178
32180
32181
32183
32187
32200
32425
32441
32462
32502
32518
32523
32526
32539
32545
32554
32557
32558
32563
32718
32719
32744
32760
32762
32802
32900
32979
33514
33862
33863
34974
35198
35363
35369
35437
35678
35696
35712
35713
35816
35863
35880
35881
36066
36067
36185
36188
36201
36213
36215
36262
36267
36672
36919
36921
36922
37105
37467
37469
37531
37534
37701
38117
38123
39227
39271
40369
40370
40372
40460
40462
40468
40469
40473
40482
40495
40509
40531
40573
40598
40599
40618
40619
40628
40630
40669
40676
40679
40680
40684
40685
40689
40734
40735
40736
40752
40860
40885
40910
40912
40986
40988
40989
40993
40997
41002
41011
41025
41051
41071
41073
41084
41098
41104
41128
41161
41184
41200
41209
41220
41221
41230
41238
41240
41243
41247
41257
41292
41365
41370
41371
41428
41429
41430
41441
41474
41481
41505
41591
41595
41604
41613
41616
41636
41651
41689
41734
41735
41767
41768
41780
41788
41790
41792
41793
41812
41821
41822
41823
41840
41843
41856
41881
42004
42006
42033
42070
42074
42093
42110
42117
42147
42166
42168
42174
42175
42176
42178
42179
42180
42191
42193
42194
42207
42215
42229
42230
42236
42237
42245
42246
42275
42276
42283
42285
42286
42288
42293
42295
42296
42299
42307
42309
42310
42314
42334
42353
42354
42370
42429
42465
42483
42500
42574
42616
42617
42618
42619
42631
42636
42639
42641
42649
42656
42704
42714
42734
42735
42759
42763
42771
42786
42795
42804
42808
42822
42824
42831
42838
42854
42863
42867
42871
42874
42885
42893
42895
42897
42901
42956
42961
42990
42994
43008
43016
43020
43026
43027
43038
43040
43044
43047
43053
43062
43071
43074
43077
43078
43079
43087
43098
43103
43110
43112
43144
43160
43166
43167
43199
43314
43422
43424
43426
43427
43429
44123
44124
44131
44468
44469
44487
44501
45579
45632
46115
46143
46271
46272
46281
46290
46292
46307
46365
46367
46371
46386
46392
46798
46965
47011
47025
58515
59097
[ 175 ]
8282
8561
12746
14833
15602
15605
16016
16292
16304
16308
16309
16892
20850
21149
21260
22071
22502
23092
23094
23096
23099
23101
23123
23124
23131
23132
23138
23139
23141
23150
23157
23158
23180
23200
23202
23208
23211
23224
23228
23229
23234
23239
23351
23352
23374
23376
23382
23385
23419
23424
23436
23440
23443
23481
23484
23485
23486
23487
23497
23506
23555
23559
23561
23600
23625
23690
23710
23783
23800
23839
23878
23893
23900
23928
23937
23939
23957
24031
24095
25452
25815
26031
26318
28646
28721
28773
28876
28890
28954
28955
28986
29001
29016
29022
29024
29192
29574
29803
29948
29949
29998
30007
30143
30190
30195
30286
30443
30622
30723
30752
30785
30795
30815
30984
30987
30991
30994
30998
31000
31001
31002
31005
31006
31009
31018
31019
31033
31045
31226
31240
31307
31350
31572
31573
31607
31618
31700
31701
31712
31926
32000
32004
32005
32014
32015
32019
32020
32022
32023
32025
32032
32113
32115
32119
32121
32122
32124
32130
32131
32135
32147
32162
32167
32169
32176
32196
32197
32198
32457
32458
32465
32466
32495
32501
32510
32513
32514
32524
32534
32543
32555
32556
32559
32565
32567
32590
32618
32620
32623
32716
32721
32739
32769
32772
32800
32868
32871
32877
32882
32887
32902
32991
32994
33313
33488
33511
33515
33788
33801
33861
33864
34310
34313
34345
34352
35158
35197
35227
35246
35248
35266
35270
35370
35428
35429
35430
35433
35435
35436
35441
35445
35446
35449
35571
35677
35761
35782
35861
35918
36045
36047
36063
36183
36186
36189
36190
36198
36199
36200
36203
36211
36214
36216
36217
36218
36220
36253
36254
36263
36268
36270
36464
36496
36497
36607
36631
36657
36670
36713
36714
36760
36763
36764
36765
36887
36918
36920
36928
36945
36947
37096
37101
37104
37107
37254
37256
37257
37259
37382
37438
37446
37492
37547
37857
38107
38108
38115
38139
38152
38169
38170
38298
38380
38382
38428
38444
38764
39299
39334
39813
39816
40314
40374
40390
40391
40394
40395
40415
40455
40461
40463
40464
40466
40470
40474
40481
40487
40491
40494
40496
40497
40520
40522
40536
40538
40574
40593
40597
40605
40607
40623
40624
40625
40629
40631
40632
40636
40641
40660
40664
40671
40672
40737
40738
40750
40758
40862
40866
40883
40886
40905
40911
40937
40990
40996
40999
41001
41008
41010
41013
41024
41040
41050
41057
41068
41070
41088
41089
41100
41102
41106
41109
41125
41190
41201
41202
41204
41207
41208
41210
41211
41218
41223
41224
41225
41226
41228
41229
41233
41241
41244
41245
41254
41258
41264
41272
41431
41432
41438
41439
41443
41446
41462
41471
41472
41473
41476
41495
41497
41498
41500
41501
41549
41592
41610
41612
41620
41627
41646
41648
41652
41695
41733
41736
41766
41782
41791
41803
41807
41811
41838
41844
41845
41857
41882
42007
42009
42039
42063
42091
42095
42142
42181
42183
42184
42186
42200
42201
42219
42223
42225
42228
42248
42249
42250
42252
42259
42268
42278
42280
42282
42284
42306
42311
42317
42320
42392
42419
42438
42440
42458
42459
42463
42467
42468
42526
42534
42548
42559
42572
42575
42597
42603
42605
42612
42622
42626
42632
42638
42659
42703
42709
42712
42828
42833
42857
42861
42862
42886
42905
42957
42962
42964
42965
42975
42989
42995
43006
43009
43011
43015
43017
43030
43034
43056
43060
43076
43088
43097
43146
43151
43161
43169
43170
43171
43173
43282
43284
44167
44375
44457
44477
44497
44928
44933
45123
46142
46249
46273
46282
46297
46299
46322
46344
46364
46388
46397
46412
46413
46645
46648
46649
46734
46799
46805
46809
46814
47023
47102
47155
47324
47513
47519
47522
50425
50575
50576
50997
58513
58514
59095
59096
59102
66359
[ 176 ]
19065
20815
23091
23093
23097
23098
23130
23145
23149
23151
23161
23162
23169
23173
23174
23179
23185
23196
23197
23203
23204
23207
23215
23245
23335
23356
23357
23369
23370
23389
23422
23428
23445
23492
23493
23495
23496
23498
23557
23558
23560
23643
23646
23872
23874
23914
25454
25455
25457
25897
26369
26391
28722
28984
29193
29575
29577
29589
29969
30144
30145
30638
30639
30758
30772
30774
30776
30783
30784
30790
30881
30901
30902
30903
30906
30907
30910
30934
30955
30982
30985
30986
31004
31008
31010
31011
31012
31015
31016
31102
31106
31204
31218
31219
31235
31604
31612
31619
31620
31708
31714
31715
31721
31746
31919
31936
31950
31990
31991
31996
32002
32003
32012
32033
32059
32068
32098
32116
32118
32120
32126
32129
32132
32141
32163
32177
32461
32464
32520
32525
32535
32551
32587
32588
32589
32591
32592
32601
32602
32603
32605
32606
32613
32621
32678
32685
32711
32722
32723
32724
32729
32756
32767
32770
32774
32775
32791
32803
32804
32837
32838
32852
32867
32870
32876
32878
32880
32883
32886
32888
32890
32893
32895
32897
32901
32986
33302
33309
33311
33490
33754
33765
33787
33789
33799
33800
33802
33803
33804
33806
33812
33817
33856
33858
33860
33872
33878
33932
33933
33963
33971
34307
34309
34314
34341
34858
34859
34860
34886
34913
34951
34970
34972
34973
34991
35190
35201
35202
35207
35222
35225
35233
35242
35244
35249
35261
35262
35263
35264
35265
35267
35271
35284
35324
35356
35357
35368
35374
35414
35450
35451
35455
35553
35715
35717
35733
35805
35860
35864
35870
35875
35902
35909
35913
35962
35983
36003
36049
36052
36057
36065
36068
36069
36076
36148
36170
36187
36193
36194
36195
36202
36219
36233
36238
36250
36251
36259
36265
36271
36495
36520
36538
36540
36590
36600
36601
36623
36638
36640
36650
36655
36665
36696
36700
36715
36733
36736
36744
36751
36755
36767
36770
36772
36782
36783
36784
36892
36900
36914
36917
36924
36926
36927
36939
36941
36942
36946
36950
36956
36980
36983
36985
37102
37109
37111
37112
37142
37178
37179
37180
37258
37262
37288
37371
37422
37423
37444
37447
37459
37461
37541
37695
37699
37822
37852
37980
37981
37984
37990
38006
38008
38009
38047
38105
38106
38124
38131
38147
38151
38157
38168
38381
38426
38429
38432
38487
38521
38760
38771
38773
38782
38788
39236
39237
39238
39258
39274
39296
39305
39815
40305
40327
40328
40332
40373
40384
40393
40397
40409
40452
40454
40456
40457
40475
40477
40489
40510
40518
40519
40529
40544
40558
40578
40582
40584
40587
40588
40596
40600
40601
40604
40653
40656
40662
40667
40704
40705
40724
40725
40731
40732
40741
40744
40749
40754
40756
40759
40855
40856
40858
40864
40868
40875
40900
40904
40919
40921
40923
40935
40942
40981
40991
41026
41028
41044
41054
41055
41056
41058
41059
41063
41065
41069
41078
41080
41112
41113
41124
41131
41140
41141
41146
41149
41152
41158
41159
41206
41212
41222
41248
41251
41253
41255
41261
41262
41263
41270
41275
41276
41277
41278
41279
41280
41285
41291
41304
41320
41344
41357
41374
41436
41437
41440
41445
41448
41454
41461
41487
41493
41502
41551
41571
41594
41605
41618
41634
41637
41647
41654
41659
41686
41687
41688
41697
41723
41757
41758
41759
41784
41787
41802
41804
41819
41853
41854
41855
42008
42096
42141
42145
42146
42217
42220
42224
42227
42231
42232
42233
42235
42239
42242
42247
42253
42254
42255
42263
42266
42269
42270
42272
42274
42279
42318
42319
42323
42326
42327
42375
42391
42393
42406
42407
42408
42416
42434
42437
42439
42464
42466
42469
42475
42485
42492
42503
42508
42509
42511
42514
42522
42565
42581
42582
42591
42595
42596
42610
42611
42613
42621
42650
42673
42683
42686
42711
42821
42830
42887
42888
42891
42966
42972
42973
42976
42977
42981
42985
42999
43000
43018
43031
43032
43035
43058
43075
43089
43091
43102
43143
43147
43150
43392
43394
43395
44034
44172
44326
44372
44374
44454
44481
44482
44484
44485
44492
44495
44513
44516
44519
44891
44934
45027
45490
45491
46289
46296
46324
46576
46577
46617
46642
46644
46653
46662
46733
46752
46810
46818
46819
46820
46821
46822
46839
46851
46863
46992
47080
47245
47271
47272
47403
50333
50423
50560
50574
50891
54736
58516
58517
59094
60884
62725
[ 177 ]
20817
23125
23146
23147
23148
23159
23160
23164
23167
23168
23170
23171
23172
23175
23176
23178
23206
23217
23339
23340
23368
23375
23390
23423
23437
23438
23489
23494
23539
23902
24171
26404
28194
28378
28977
30712
30728
30733
30739
30745
30764
30771
30791
30798
30799
30802
30807
30822
30888
30889
30890
30892
30893
30895
30919
30927
30940
30953
30959
30964
30968
30983
31103
31178
31213
31217
31373
31380
31610
31613
31614
31617
31711
31727
31993
31995
31997
32094
32165
32585
32600
32604
32614
32622
32628
32641
32650
32659
32669
32679
32705
32707
32709
32715
32730
32740
32741
32742
32789
32796
32809
32815
32823
32824
32828
32829
32836
32839
32845
32849
32853
32854
32889
32891
32892
32894
32898
32910
32983
32985
33308
33317
33491
33495
33726
33727
33733
33734
33735
33760
33805
33808
33815
33818
33819
33822
33823
33848
33850
33853
33859
33873
33875
33877
33879
33880
33895
33908
33919
33948
33949
33951
33953
33955
33957
33958
33962
33967
33970
34024
34064
34066
34067
34068
34069
34147
34154
34251
34255
34256
34259
34296
34297
34299
34302
34305
34315
34328
34329
34342
34344
34348
34354
34369
34890
34891
34893
34910
34912
34915
34921
34939
34949
34989
34995
34997
35030
35188
35192
35193
35208
35213
35216
35219
35228
35234
35237
35259
35268
35269
35275
35278
35279
35358
35364
35365
35431
35447
35718
35862
35873
35874
35890
35893
35894
35895
35901
35917
35920
35961
35963
35972
35981
35982
35994
35998
35999
36000
36002
36038
36041
36042
36044
36051
36060
36062
36088
36151
36153
36168
36191
36192
36205
36231
36247
36249
36258
36260
36261
36454
36457
36463
36498
36505
36524
36525
36527
36531
36542
36550
36586
36591
36608
36614
36617
36654
36663
36664
36666
36667
36668
36677
36679
36683
36689
36699
36703
36726
36729
36738
36740
36743
36750
36752
36754
36761
36762
36785
36811
36839
36840
36850
36857
36860
36866
36884
36885
36891
36893
36898
36901
36910
36935
36938
36949
36963
36978
36981
36984
36990
36992
37080
37088
37090
37095
37100
37125
37136
37155
37189
37237
37383
37400
37415
37424
37432
37458
37462
37476
37482
37688
37693
37697
37698
37703
37761
37804
37835
37844
37845
37870
37982
37988
38004
38012
38020
38041
38048
38072
38102
38103
38104
38125
38133
38136
38143
38160
38162
38163
38172
38173
38209
38299
38305
38307
38308
38383
38384
38387
38390
38411
38412
38422
38425
38441
38468
38477
38533
38575
38579
38583
38699
38700
38705
38753
38754
38775
38778
38784
39129
39132
39304
39307
39352
39384
39387
39666
40223
40226
40239
40251
40281
40290
40300
40306
40307
40308
40311
40315
40316
40331
40398
40411
40416
40443
40465
40478
40490
40492
40498
40506
40515
40523
40539
40546
40552
40553
40554
40556
40559
40586
40589
40611
40612
40616
40642
40643
40644
40650
40651
40654
40655
40657
40658
40723
40729
40739
40773
40844
40850
40873
40874
40879
40880
40881
40882
40888
40893
40903
40925
40943
40945
40946
40952
40975
40978
41004
41016
41017
41029
41030
41031
41032
41038
41042
41047
41049
41053
41066
41081
41114
41120
41122
41142
41143
41151
41154
41186
41189
41252
41260
41265
41268
41273
41274
41281
41284
41287
41289
41293
41295
41296
41303
41314
41319
41322
41340
41342
41415
41434
41444
41455
41456
41457
41464
41488
41490
41492
41494
41520
41521
41523
41524
41530
41532
41537
41587
41593
41596
41597
41678
41684
41708
41720
41749
41750
41754
41806
41848
42267
42322
42329
42365
42376
42401
42445
42462
42473
42487
42488
42489
42490
42491
42578
42664
42666
42672
42682
42699
42820
42967
42970
42979
42982
42983
42984
42986
42988
43001
43003
43004
43099
43153
43154
43262
43288
43331
43369
43423
44030
44035
44129
44203
44449
44451
44455
44494
44514
44854
44858
44882
44885
44886
44888
44892
44936
44937
44951
44990
45542
46102
46117
46284
46287
46327
46330
46393
46416
46520
46522
46532
46533
46567
46622
46624
46694
46699
46700
46737
46811
46823
46836
46837
46862
46864
46990
47015
47029
47086
47087
47107
47243
47269
47273
47274
47275
47325
47348
47362
47404
47503
47511
50578
50602
58506
58510
58525
64918
[ 178 ]
23165
23166
23177
23205
23706
25894
26401
28929
29198
30707
30708
30735
30746
30757
30835
30838
30851
30857
30858
30883
30886
30887
30891
30894
30900
30912
30913
30914
30918
30926
30929
30930
30931
30932
30933
30949
30954
30957
30960
30962
30981
31027
31111
31722
31992
31994
32045
32048
32050
32056
32057
32093
32348
32642
32644
32670
32677
32681
32683
32684
32702
32704
32734
32736
32737
32749
32757
32777
32782
32806
32819
32820
32831
32832
32840
32850
32862
32872
32874
32909
32984
32987
33492
33499
33501
33719
33728
33729
33741
33742
33744
33745
33746
33748
33755
33758
33761
33764
33783
33786
33792
33797
33807
33810
33811
33813
33821
33833
33835
33842
33846
33847
33849
33851
33852
33867
33874
33905
33928
33930
33931
33937
33939
33943
33946
33947
33954
33961
33965
33966
33988
33990
34020
34021
34023
34036
34053
34063
34065
34107
34110
34111
34136
34149
34151
34204
34235
34246
34249
34254
34257
34271
34283
34285
34286
34298
34323
34324
34325
34326
34331
34332
34334
34349
34358
34359
34360
34361
34851
34856
34857
34861
34894
34926
34937
34968
34998
34999
35000
35004
35005
35057
35058
35059
35186
35191
35209
35211
35215
35218
35223
35224
35257
35272
35276
35307
35323
35325
35353
35354
35355
35373
35632
35719
35730
35734
35858
35898
35904
35908
35926
35930
35960
35977
35978
35979
35984
36001
36004
36015
36016
36017
36020
36032
36034
36039
36071
36074
36081
36089
36117
36150
36154
36158
36162
36165
36166
36175
36178
36197
36222
36224
36232
36240
36248
36257
36299
36300
36312
36323
36326
36363
36375
36382
36393
36408
36425
36426
36427
36431
36452
36453
36458
36460
36465
36470
36474
36506
36563
36567
36571
36594
36599
36606
36609
36612
36615
36662
36685
36693
36706
36716
36717
36723
36742
36748
36779
36780
36807
36809
36813
36815
36849
36852
36868
36869
36872
36879
36882
36883
36886
36902
36930
36931
36933
36934
36936
36957
36960
36962
36964
36967
36976
36986
36988
36989
36995
37009
37016
37042
37043
37044
37047
37049
37074
37075
37076
37078
37079
37083
37087
37091
37093
37117
37138
37159
37164
37184
37187
37210
37217
37219
37225
37294
37307
37332
37360
37372
37402
37410
37416
37420
37475
37565
37566
37585
37664
37671
37677
37685
37686
37706
37707
37714
37743
37745
37751
37763
37764
37783
37793
37796
37802
37803
37806
37807
37808
37821
37823
37836
37839
37859
37894
37896
37898
37899
37900
37920
37921
37927
37974
37979
38005
38011
38050
38064
38073
38088
38101
38126
38127
38129
38134
38135
38140
38149
38166
38182
38196
38200
38203
38213
38223
38225
38264
38267
38281
38283
38284
38327
38372
38373
38388
38413
38421
38466
38478
38489
38494
38522
38525
38704
38743
38781
38921
38922
39338
39372
39385
39456
40225
40227
40229
40231
40236
40283
40299
40319
40325
40346
40348
40427
40430
40435
40450
40499
40505
40517
40525
40527
40561
40563
40565
40566
40569
40590
40613
40714
40727
40769
40788
40799
40805
40814
40817
40826
40827
40843
40847
40851
40871
40872
40877
40887
40894
40897
40915
40922
40958
40966
41007
41018
41019
41022
41023
41033
41048
41136
41139
41147
41148
41156
41266
41267
41301
41309
41310
41313
41317
41318
41323
41338
41416
41418
41465
41469
41470
41522
41572
41608
41707
41747
41753
41785
41805
42143
42321
42331
42377
42405
42412
42420
42472
42658
42661
42662
42690
42691
42693
42968
42971
43155
43156
43250
43301
43310
43333
44071
44515
44518
44865
44881
44887
46010
46103
46396
46401
46417
46476
46640
46658
46668
46689
46701
46716
46824
46855
46859
46867
47154
47235
47316
47335
47336
47349
47350
47353
47354
47355
47361
47378
47379
47382
47383
47397
47398
47406
47508
49865
50421
52976
54737
57274
58522
58526
58528
[ 179 ]
23127
23128
23163
23909
28077
30831
30832
30837
30840
30856
30859
30882
30884
30911
30916
30924
30925
30928
30935
30938
30944
30946
30947
30948
30966
30970
32008
32054
32127
32599
32637
32645
32647
32655
32656
32671
32674
32680
32694
32731
32738
32750
32753
32781
32810
32812
32856
32861
32905
32906
33310
33500
33716
33737
33738
33759
33762
33763
33767
33768
33770
33779
33780
33781
33795
33826
33827
33832
33834
33837
33838
33839
33844
33876
33881
33886
33887
33889
33892
33906
33909
33912
33936
33940
33942
33945
33960
33973
33974
33975
33980
33981
33983
33989
33992
33996
34001
34011
34029
34031
34043
34054
34062
34070
34071
34075
34077
34078
34080
34108
34109
34112
34126
34132
34140
34143
34144
34145
34146
34148
34156
34159
34160
34162
34195
34197
34203
34205
34215
34216
34232
34233
34239
34252
34260
34261
34288
34289
34291
34292
34294
34295
34301
34317
34318
34319
34322
34327
34330
34338
34351
34364
34366
34835
34843
34845
34846
34853
34862
34867
34872
34884
34885
34933
35080
35098
35185
35212
35239
35240
35277
35306
35322
35342
35344
35350
35382
35390
35420
35421
35423
35757
35897
35900
35905
35924
35928
35929
35956
35967
35969
35990
36006
36010
36011
36013
36014
36019
36075
36093
36095
36102
36103
36104
36105
36107
36113
36115
36116
36118
36119
36132
36134
36137
36138
36140
36152
36156
36163
36167
36177
36180
36221
36223
36230
36256
36272
36281
36282
36284
36292
36301
36310
36311
36317
36319
36322
36324
36341
36349
36352
36353
36354
36355
36356
36367
36370
36385
36397
36398
36407
36412
36414
36432
36459
36468
36469
36475
36482
36484
36493
36508
36552
36570
36581
36618
36709
36718
36746
36749
36774
36787
36796
36797
36799
36803
36806
36808
36820
36855
36861
36863
36903
36904
36907
36958
36994
37000
37001
37006
37011
37014
37015
37045
37048
37070
37073
37120
37126
37130
37135
37160
37162
37183
37208
37218
37223
37247
37252
37279
37285
37306
37329
37357
37380
37413
37474
37608
37659
37662
37666
37667
37668
37676
37680
37713
37732
37735
37749
37757
37792
37810
37812
37816
37819
37824
37882
37887
37892
37895
37919
37949
38003
38021
38053
38054
38056
38062
38066
38067
38068
38070
38086
38096
38144
38177
38178
38183
38189
38193
38198
38199
38202
38265
38266
38272
38276
38286
38296
38304
38371
38374
38375
38391
38392
38427
38452
38501
38509
38510
38511
38572
38675
38736
38742
39263
39358
39831
39832
39835
39847
39862
39863
39914
40233
40238
40241
40270
40317
40318
40323
40329
40344
40349
40421
40425
40428
40436
40438
40439
40516
40526
40548
40564
40614
40765
40772
40776
40794
40806
40807
40808
40811
40948
40957
40959
40962
40963
40967
41005
41020
41298
41307
41467
41525
41536
41541
41559
41751
42356
42378
42670
42969
43277
44068
44072
44859
44866
46418
46433
46435
46527
46531
46626
46637
46666
46688
46702
46703
46704
46705
46706
46710
46717
46846
47088
47103
47105
47106
47195
47215
47224
47232
47233
47267
47268
47315
47363
47374
47407
47507
47842
49864
52975
52997
54028
58471
58524
58537
[ 180 ]
28195
30828
30830
30862
30869
30870
30874
30875
30876
30897
30936
30937
32049
32055
32598
32652
32653
32673
32732
32841
32857
32859
32907
33740
33776
33777
33829
33836
33840
33882
33884
33888
33893
33896
33898
33902
33904
33911
33917
33926
33927
33938
33976
33995
34003
34007
34012
34014
34017
34018
34038
34039
34042
34052
34059
34074
34076
34081
34082
34083
34092
34113
34114
34119
34122
34125
34134
34135
34137
34150
34158
34166
34213
34227
34229
34230
34247
34266
34270
34272
34280
34290
34316
34333
34336
34337
34339
34362
34365
34393
34883
34898
35345
35348
35349
35378
35380
35381
35383
35384
35385
35388
35419
35422
35923
35927
35931
35987
35991
36101
36111
36112
36125
36126
36127
36129
36131
36136
36139
36141
36143
36160
36161
36229
36279
36304
36316
36318
36321
36328
36332
36334
36335
36342
36358
36364
36371
36381
36415
36437
36438
36477
36478
36492
36500
36514
36553
36577
36579
36596
36597
36719
36720
36747
36788
36794
36835
36880
36881
36932
36961
36970
36997
36999
37027
37033
37034
37039
37040
37064
37065
37127
37150
37166
37172
37193
37201
37202
37204
37227
37248
37281
37328
37375
37595
37660
37661
37665
37675
37717
37718
37719
37720
37721
37731
37734
37738
37740
37752
37756
37768
37770
37782
37813
37815
37817
37818
37820
37825
37864
37873
37888
37891
37915
37918
37928
37929
37932
37938
37946
37953
37954
37973
37975
38037
38038
38039
38040
38089
38179
38188
38274
38334
38337
38338
38346
38347
38349
38351
38354
38355
38356
38365
38367
38376
38402
38405
38408
38410
38465
38467
38508
38638
38674
38925
39357
39374
39671
39672
39727
39833
39842
39845
39851
39861
39866
39876
39885
39888
39890
39913
39928
39929
40228
40234
40237
40246
40275
40345
40347
40429
40446
40716
40721
40767
40770
40771
40777
40822
40823
40950
40960
41271
41326
41417
41714
42696
43334
43336
43337
43338
44069
44782
46421
46425
46427
46428
46429
46430
46861
47143
47150
47152
47160
47219
47337
47366
47368
52974
52985
52988
54741
58470
58481
58520
58527
[ 181 ]
30839
30843
30850
30854
30860
30861
30866
30868
30917
32672
32860
33773
33782
33824
33883
33897
33910
33915
33922
34002
34032
34096
34100
34104
34115
34116
34117
34121
34127
34128
34130
34139
34165
34168
34181
34183
34185
34186
34187
34196
34198
34200
34202
34206
34207
34208
34209
34218
34220
34223
34226
34236
34241
34273
34274
34276
34363
34838
34839
35125
35329
35330
35346
35602
35968
36114
36130
36276
36289
36290
36306
36308
36309
36329
36336
36343
36373
36392
36479
36491
36576
36791
36801
36828
36905
36906
37003
37005
37019
37350
37353
37599
37600
37601
37604
37607
37709
37710
37723
37726
37730
37776
37826
37917
37945
37947
37950
37963
38031
38033
38036
38069
38176
38331
38348
38350
38357
38362
38368
38369
38370
38394
38396
38400
38464
38641
38939
39453
39652
39680
39830
39837
39838
39839
39848
39857
39858
39859
39869
39877
39878
39889
39910
39927
40445
40779
40780
40781
40783
40795
43213
43309
43335
46436
46473
46631
46665
47162
47227
50591
52977
52996
57128
58469
58473
58474
[ 182 ]
30829
30846
30847
30864
32842
33774
33885
33925
33994
33997
33999
34051
34088
34089
34101
34102
34169
34170
34171
34180
34182
34194
34275
34277
34278
34392
36092
36303
36345
36389
36405
36790
37771
37773
37775
37779
37933
37944
37951
37956
37964
37972
37977
38032
38332
38344
38345
38353
38360
38366
38397
38403
39841
39850
39871
39874
39875
39879
40245
40713
40784
46431
46635
47076
47147
47148
47163
47170
47222
52752
52981
58465
58542
[ 183 ]
32843
34118
34172
34173
34175
34191
34192
34210
34279
36287
37609
37965
38035
38363
38364
39856
52960
52970
52972
[ 184 ]
34050
34178
34188
37940
52249
52937
52940
52948
52955
52963
[ 185 ]
37957
52944
52950
52957
[ 186 ]
52880
52956
52958
[ 187 ]
52941
52953
52962
[ 192 ]
8845
16823
[ 193 ]
9402
16821
16824
16825
16826
16827
[ 194 ]
4648
9165
9238
9420
9421
9434
11341
11842
16815
16817
16818
16835
16845
[ 195 ]
4438
4498
4771
4773
8737
8740
8850
9013
9163
9166
9229
9230
9241
9399
9406
9424
9429
9432
10752
10841
11335
11337
16822
16828
16829
16831
16833
16836
16846
[ 196 ]
3845
4367
4427
4431
4436
4473
4474
4475
4477
4480
4484
4485
4497
4500
4522
4524
4525
4545
4576
4584
4772
8726
8832
8842
8843
9034
9103
9110
9161
9191
9228
9234
9348
9372
9404
9407
9408
9410
9411
9413
9414
9416
9418
9435
9717
10000
10467
10610
10612
10613
10728
10732
10753
10754
10977
11158
11332
11338
11343
11344
11397
11398
11872
12065
12070
12078
12080
12090
12535
12543
14518
16807
16832
16838
16844
16847
[ 197 ]
3988
4371
4374
4428
4433
4434
4439
4462
4465
4471
4483
4487
4488
4489
4494
4495
4504
4506
4521
4527
4539
4542
4548
4570
4609
4646
4651
4767
4768
4774
5981
5983
5984
6028
6331
8724
8734
8741
8748
8749
8771
8777
8833
8835
8982
8994
9039
9047
9052
9065
9133
9138
9139
9169
9176
9181
9220
9235
9257
9333
9340
9356
9358
9359
9363
9364
9400
9409
9412
9419
9440
9487
9719
10001
10002
10080
10094
10333
10335
10336
10349
10444
10718
10719
10722
10726
10741
10745
10748
10783
10839
10966
11016
11154
11155
11171
11183
11184
11201
11261
11314
11315
11316
11326
11331
11333
11346
11384
11866
11873
11908
11995
12054
12068
12085
12091
12294
12379
12533
12622
12623
12627
12628
14105
14507
14519
14542
14546
14559
14560
14562
14594
16785
16804
16806
16808
16848
18111
18244
20367
20374
20475
20508
29370
29373
29374
29376
[ 198 ]
3494
3567
3572
3758
3846
3989
3997
4147
4253
4254
4258
4260
4261
4279
4368
4370
4377
4396
4414
4422
4423
4430
4447
4456
4457
4459
4461
4464
4470
4472
4478
4481
4493
4515
4516
4523
4549
4599
4602
4604
4630
4656
4664
4665
4800
4897
4910
4920
4921
4923
4981
5443
5787
5980
5985
6027
6100
6104
8718
8721
8742
8745
8746
8772
8794
8838
8975
9107
9109
9113
9149
9171
9175
9179
9182
9183
9184
9186
9188
9260
9264
9265
9336
9341
9360
9362
9397
9437
9439
9441
9443
9477
9480
9483
9735
9844
9912
9933
9964
9998
9999
10021
10258
10331
10332
10334
10369
10514
10575
10607
10615
10616
10677
10697
10706
10707
10723
10734
10735
10739
10771
10780
10928
10967
10975
10998
10999
11000
11005
11013
11053
11074
11115
11119
11140
11143
11148
11149
11151
11153
11159
11160
11165
11168
11175
11176
11178
11200
11202
11203
11220
11221
11223
11224
11248
11252
11253
11254
11292
11295
11322
11324
11328
11329
11330
11345
11348
11365
11367
11369
11377
11379
11382
11383
11385
11396
11399
11400
11491
11492
11709
11711
11787
11794
11885
11921
11981
11994
12069
12073
12075
12129
12189
12380
12624
12773
13266
13441
13795
13868
14149
14183
14251
14254
14395
14508
14510
14520
14526
14528
14540
14541
14544
14547
14551
14553
14561
14563
14564
15049
16786
16787
16802
16841
16849
17102
17480
17984
18110
18114
18115
18116
18265
18296
19189
19610
19714
19716
19734
20369
20372
20421
20470
20484
20509
20515
20545
20587
21460
21483
21484
22016
22877
29371
29375
29485
[ 199 ]
3257
3349
3485
3486
3487
3488
3492
3497
3499
3503
3515
3516
3703
3842
3843
3987
3991
3994
4144
4146
4191
4219
4255
4270
4271
4273
4408
4442
4444
4449
4528
4564
4565
4566
4567
4568
4588
4603
4605
4606
4613
4623
4635
4652
4658
4660
4661
4662
4663
4747
4763
4776
4782
4783
4784
4829
4851
4893
4894
4901
4905
4907
4908
4909
4924
4926
4927
4994
5001
5007
5133
5219
5220
5226
5227
5245
5272
5273
5310
5311
5312
5384
5438
5439
5450
5492
5493
5601
5632
5783
5786
5791
5883
6048
6053
6077
6078
6105
6140
6318
6328
6329
6470
8715
8753
8761
8765
8767
8776
8782
8785
8790
8797
8800
8974
9115
9116
9159
9185
9187
9263
9266
9320
9323
9327
9328
9331
9335
9337
9342
9351
9352
9368
9369
9391
9393
9460
9476
9479
9482
9555
9558
9656
9658
9720
9728
9775
9793
9795
9802
9803
9804
9807
9808
9845
9847
9848
9851
9885
9889
9895
9896
9900
9911
9915
9934
9960
9962
9966
9976
9977
9979
9984
10003
10006
10007
10014
10018
10023
10029
10038
10056
10057
10098
10113
10144
10152
10168
10169
10175
10181
10263
10266
10329
10348
10351
10352
10374
10501
10506
10517
10521
10539
10543
10549
10553
10574
10606
10621
10626
10627
10631
10679
10680
10698
10702
10703
10715
10717
10724
10744
10812
10876
10968
10969
10974
10982
10983
11001
11003
11076
11078
11080
11082
11086
11117
11121
11125
11134
11139
11142
11161
11163
11166
11167
11177
11186
11187
11188
11193
11196
11205
11219
11235
11236
11244
11255
11256
11262
11264
11276
11277
11294
11297
11301
11305
11307
11312
11313
11349
11364
11366
11372
11376
11381
11393
11401
11402
11473
11474
11475
11493
11494
11547
11715
11732
11764
11784
11820
11891
11922
12020
12042
12052
12104
12134
12210
12214
12274
12514
12531
12568
12569
12611
12775
12776
13103
13109
13111
13267
13327
13379
13383
13387
13388
13397
13403
13405
13407
13442
13449
13454
13793
13866
13870
13871
13873
13874
13878
13879
13882
13892
14081
14092
14096
14101
14103
14104
14133
14153
14165
14178
14179
14228
14257
14260
14299
14396
14503
14504
14505
14512
14524
14530
14531
14573
14589
14593
14595
14598
14608
14611
14680
14681
14691
15425
16182
16782
16783
16784
17109
17110
17119
17202
17206
17577
17664
17665
17932
17939
17993
17996
18102
18117
18241
18246
18249
18267
18272
18622
18834
18885
18886
19132
19190
19217
19587
19598
19606
19608
19611
19704
19710
19717
19729
19730
19733
20008
20023
20361
20366
20523
20733
21551
21638
21695
21779
21802
21803
21823
21842
21956
22005
22165
22882
26968
26974
28532
29363
29378
29380
29411
29412
29671
29840
43129
[ 200 ]
3471
3481
3484
3517
3524
3542
3547
3633
3708
3841
3908
3977
3981
3999
4048
4090
4102
4107
4141
4142
4145
4148
4185
4187
4218
4225
4252
4265
4269
4289
4291
4293
4384
4420
4448
4451
4452
4453
4455
4511
4513
4514
4517
4518
4535
4607
4618
4631
4643
4659
4684
4720
4740
4748
4755
4756
4757
4758
4765
4785
4792
4799
4801
4802
4806
4821
4831
4832
4840
4847
4887
4903
4946
4971
4972
4982
4983
4985
4996
5000
5002
5008
5009
5011
5013
5044
5045
5113
5116
5117
5120
5134
5136
5153
5159
5179
5221
5228
5243
5244
5246
5251
5256
5277
5279
5280
5281
5304
5309
5366
5368
5369
5381
5385
5392
5394
5401
5434
5614
5617
5618
5620
5703
5727
5770
5809
5886
5936
5938
5968
6023
6033
6045
6049
6050
6051
6052
6071
6076
6082
6101
6114
6116
6126
6324
6327
6332
6341
6472
6513
6514
6515
6518
7893
7898
7906
7909
7990
8204
8229
8313
8314
8315
8317
8686
8687
8694
8707
8712
8716
8744
8754
8769
8773
8774
8793
8795
8798
9120
9278
9326
9330
9338
9339
9392
9445
9448
9452
9459
9557
9626
9636
9647
9648
9657
9761
9767
9784
9789
9790
9797
9798
9799
9801
9843
9852
9853
9854
9870
9887
9888
9893
9898
9916
9917
9918
9919
9920
9925
9965
9968
9971
9993
9994
9995
9997
10005
10011
10022
10034
10036
10050
10051
10052
10058
10063
10075
10105
10153
10192
10239
10262
10326
10328
10338
10339
10345
10359
10362
10373
10431
10453
10481
10498
10504
10508
10516
10518
10540
10544
10554
10555
10561
10572
10587
10605
10622
10623
10624
10625
10628
10666
10669
10683
10685
10688
10785
10793
10797
10869
10875
10877
10965
10985
11022
11035
11077
11083
11087
11122
11138
11141
11146
11147
11162
11185
11197
11206
11214
11215
11225
11227
11229
11230
11240
11246
11247
11265
11266
11271
11272
11273
11274
11278
11291
11299
11303
11308
11310
11318
11351
11373
11378
11392
11476
11481
11482
11484
11496
11503
11516
11741
11742
11770
11825
11903
11925
11941
11986
12126
12139
12142
12219
12227
12229
12640
12641
12642
12655
12660
12768
12779
12956
13094
13095
13096
13198
13200
13201
13250
13256
13288
13341
13342
13347
13358
13360
13375
13376
13377
13380
13408
13423
13438
13439
13440
13452
13453
13455
13456
13470
13471
13734
13757
13778
13790
13791
13796
13812
13813
13850
13857
13859
13860
13863
13864
13865
13867
13869
13872
13877
13888
13889
13890
13894
13895
13896
13898
13920
13928
13959
13960
14048
14075
14077
14078
14089
14098
14152
14155
14172
14175
14180
14225
14258
14305
14385
14386
14451
14523
14549
14550
14555
14556
14558
14574
14585
14586
14596
14604
14614
14640
14643
14652
14654
14655
14659
14660
14679
14704
14708
15004
15028
15060
15151
15155
15421
15427
15466
15869
16199
16606
16801
16855
16858
17100
17101
17140
17186
17194
17197
17201
17225
17419
17439
17456
17481
17487
17489
17490
17661
17675
17684
17685
17792
17834
17930
17931
17937
17940
17947
17948
17971
17973
17982
17985
17986
17988
17990
18000
18023
18027
18030
18064
18067
18127
18130
18134
18235
18248
18266
18274
18301
18302
18313
18314
18334
18496
18625
18725
18762
18855
18870
18872
18874
18937
18975
19192
19193
19194
19325
19348
19351
19532
19544
19579
19588
19594
19596
19612
19624
19690
19700
19702
19726
19727
19731
19860
19884
19913
19921
19924
19928
19950
19960
19982
20007
20009
20024
20045
20096
20134
20503
20564
20566
20578
20652
20734
20736
20897
20905
20912
20926
21459
21467
21487
21492
21561
21608
21630
21680
21682
21752
21786
21826
21843
21957
21986
21994
22001
22014
22157
22162
22861
22875
22879
22881
22884
22886
22887
23817
23818
23819
23820
24193
24194
24302
24397
24739
24901
26652
26740
26941
27039
28533
28539
29079
29307
29309
29381
29384
29488
29498
29670
29823
29844
30533
43125
43127
45701
[ 201 ]
2877
3278
3280
3346
3347
3354
3418
3472
3473
3474
3478
3479
3483
3501
3506
3519
3521
3523
3839
3951
3964
3978
3979
3980
4022
4024
4036
4044
4045
4046
4047
4050
4104
4106
4136
4137
4140
4143
4156
4163
4188
4189
4195
4199
4222
4224
4226
4227
4230
4242
4251
4262
4267
4275
4294
4379
4614
4616
4624
4642
4674
4676
4677
4685
4687
4706
4707
4708
4718
4727
4732
4735
4738
4741
4743
4746
4751
4753
4788
4789
4791
4796
4797
4805
4817
4833
4834
4839
4857
4863
4864
4882
4888
4889
4892
4918
4929
4950
4973
4987
5015
5039
5040
5041
5042
5046
5053
5074
5088
5130
5135
5137
5142
5152
5155
5172
5177
5183
5185
5203
5207
5230
5236
5255
5260
5266
5269
5270
5271
5282
5288
5292
5298
5299
5307
5314
5315
5319
5320
5333
5367
5377
5386
5387
5390
5391
5397
5398
5408
5412
5413
5495
5498
5518
5603
5619
5708
5711
5841
5928
5949
5964
5965
5992
6034
6037
6038
6047
6060
6068
6070
6083
6089
6090
6108
6109
6111
6118
6129
6130
6138
6335
6336
6337
6339
6357
6372
6383
6402
6404
6443
6449
6469
6478
6480
6485
6487
6488
6512
6516
6517
6916
7016
7216
7444
7899
7974
7995
8074
8127
8129
8232
8255
8263
8266
8267
8297
8301
8331
8337
8672
8678
8679
8689
8693
8699
8700
8701
8702
8708
8713
8783
9270
9271
9274
9390
9395
9449
9453
9512
9528
9529
9530
9531
9534
9554
9599
9600
9644
9669
9687
9760
9778
9779
9800
9855
9871
9924
9931
9939
9953
9983
9986
10017
10020
10035
10059
10127
10162
10164
10189
10200
10306
10316
10327
10343
10455
10471
10536
10538
10551
10552
10556
10562
10588
10632
10663
10668
10670
10672
10673
10682
10861
10866
10867
10873
10984
11051
11124
11192
11237
11270
11280
11282
11285
11287
11290
11302
11309
11363
11371
11546
11548
11549
12230
12656
12702
12725
12766
12769
12780
12811
12847
12918
12919
12954
12957
12987
13009
13038
13061
13091
13092
13093
13108
13113
13140
13199
13257
13357
13362
13373
13426
13427
13430
13433
13437
13446
13447
13457
13580
13581
13769
13788
13789
13814
13822
13851
13852
13858
13861
13862
13881
13883
13897
13908
13922
13924
13927
13958
13961
13990
14002
14047
14125
14128
14130
14154
14164
14266
14319
14359
14361
14381
14401
14410
14422
14458
14502
14514
14515
14535
14571
14578
14587
14590
14615
14635
14637
14670
14676
14709
14710
14712
14713
14720
14758
14875
14876
14877
14898
14904
14989
14990
15003
15032
15033
15050
15054
15156
15242
15355
15373
15374
15413
15423
15460
15464
15469
15470
15533
15573
15579
15737
15744
15864
15873
15875
15877
16166
16181
16183
16201
16203
16520
16604
16609
16731
16748
16852
16859
16861
16865
16866
16881
16952
16964
17034
17114
17118
17122
17172
17187
17196
17198
17205
17208
17227
17244
17250
17251
17258
17323
17454
17462
17468
17486
17548
17566
17609
17635
17644
17646
17647
17659
17667
17672
17683
17689
17729
17736
17835
17941
17953
17975
17976
17987
18015
18019
18029
18068
18135
18174
18247
18258
18259
18260
18261
18312
18315
18331
18333
18412
18474
18476
18477
18495
18626
18756
18761
18788
18817
18854
18873
18877
18933
18942
18943
18972
19084
19115
19130
19169
19170
19184
19196
19309
19311
19319
19349
19352
19354
19355
19356
19360
19365
19401
19406
19428
19432
19501
19543
19580
19581
19589
19597
19599
19614
19626
19691
19698
19699
19707
19708
19713
19728
19846
19865
19870
19876
19878
19886
19899
19901
19920
19927
19930
19931
19934
19979
19981
20006
20028
20042
20077
20080
20100
20223
20241
20244
20252
20387
20568
20573
20609
20645
20725
20726
20730
20735
20738
20771
20772
20864
20900
20901
20917
20918
20921
21036
21214
21241
21326
21364
21398
21584
21588
21675
21679
21754
21755
21797
21824
21827
21841
21922
21923
21930
21944
21954
21959
21962
22114
22115
22158
22159
22167
22168
22170
22171
22181
22183
22265
22268
22278
22280
22287
22304
22409
22410
22413
22416
22417
22610
22649
22862
22889
22890
22898
23327
23653
23815
24190
24192
24196
24301
24305
24817
25758
25790
25792
26627
26628
26642
26653
26739
26742
26953
26957
26964
26965
27135
27712
27816
27888
27894
27911
28613
28666
28746
28798
28800
29047
29078
29267
29301
29306
29317
29389
29390
29420
29439
29489
29496
29500
29510
29610
29615
29619
29650
29752
29794
29824
29893
29900
29908
30301
30534
30575
30578
43120
43122
43131
45665
45672
45707
[ 202 ]
3264
3279
3282
3334
3342
3456
3468
3469
3475
3476
3504
3520
3834
3946
3959
3962
3965
3968
3969
4010
4021
4049
4053
4062
4076
4100
4112
4113
4138
4139
4161
4162
4180
4203
4244
4266
4274
4290
4615
4680
4682
4683
4686
4690
4698
4702
4709
4710
4721
4722
4723
4726
4729
4730
4752
4790
4837
4838
4843
4856
4861
4865
4866
4867
4877
4878
4891
4938
4941
4942
4960
4964
5048
5052
5076
5077
5078
5100
5106
5107
5119
5122
5124
5125
5129
5138
5157
5173
5174
5197
5205
5229
5231
5233
5234
5261
5262
5263
5285
5287
5297
5317
5318
5328
5329
5331
5338
5342
5347
5348
5358
5359
5360
5361
5371
5372
5376
5378
5379
5380
5388
5389
5396
5400
5410
5426
5499
5539
5540
5610
5713
5717
5749
5815
5831
5839
5858
5895
5967
6064
6086
6087
6088
6093
6110
6128
6320
6338
6347
6348
6349
6350
6352
6379
6397
6400
6406
6413
6414
6427
6436
6442
6448
6450
6477
6479
6510
6511
6807
6836
6842
7010
7015
7117
7124
7134
7140
7532
7561
7563
7566
7567
7616
7794
7883
7915
8125
8136
8195
8196
8268
8294
8295
8311
8330
8335
8391
8531
8660
8673
8676
8680
8683
8684
8685
8691
8696
8697
8705
8709
8710
8711
9273
9277
9283
9293
9317
9376
9497
9533
9561
9594
9602
9645
9681
9756
9757
9892
9946
9950
9987
9988
10040
10307
10550
10671
10872
11126
11208
11209
11239
11286
11616
12496
12512
12638
12667
12731
12765
12767
12788
12809
12812
12819
12848
12852
12855
12860
12864
12915
12924
12930
12936
12960
12976
12979
13010
13014
13019
13062
13064
13152
13160
13161
13187
13188
13205
13206
13207
13209
13244
13249
13259
13275
13363
13370
13465
13466
13467
13476
13678
13715
13739
13773
13774
13775
13779
13780
13781
13785
13798
13800
13811
13828
13838
13853
13854
13886
13904
13907
13910
13916
13919
13921
13944
13992
14017
14023
14042
14126
14157
14171
14203
14303
14314
14362
14372
14382
14408
14412
14415
14478
14570
14623
14630
14632
14633
14636
14638
14661
14693
14694
14700
14703
14707
14756
14757
14771
14874
14879
14880
14988
14993
14995
15016
15142
15148
15157
15170
15175
15192
15236
15237
15239
15240
15241
15244
15248
15317
15350
15351
15360
15371
15372
15410
15411
15414
15415
15432
15434
15435
15465
15468
15471
15506
15529
15535
15548
15554
15569
15674
15678
15694
15720
15725
15728
15734
15753
15760
15837
15838
15839
15865
15876
15878
15912
15922
16158
16175
16179
16180
16194
16206
16211
16398
16421
16504
16509
16517
16518
16543
16544
16561
16564
16592
16594
16595
16603
16743
16744
16746
16862
16863
16869
16883
16949
16953
16965
17040
17042
17076
17113
17124
17128
17188
17190
17215
17224
17238
17240
17252
17254
17255
17256
17267
17279
17326
17469
17547
17552
17557
17558
17561
17569
17590
17619
17620
17621
17622
17634
17653
17668
17671
17680
17681
17692
17694
17695
17697
17703
17704
17705
17723
17724
17726
17735
17746
17818
17830
17855
17878
17882
17883
17896
17898
17925
17969
18055
18056
18057
18131
18155
18162
18311
18328
18335
18416
18425
18438
18440
18508
18509
18513
18515
18562
18564
18595
18596
18630
18631
18658
18701
18720
18744
18754
18759
18760
18763
18765
18780
18845
18853
18863
18866
18878
18883
18884
18902
18932
18934
18939
18940
18948
18962
18970
19029
19037
19038
19082
19096
19102
19107
19113
19119
19154
19172
19177
19178
19180
19182
19203
19215
19218
19223
19299
19308
19317
19327
19332
19337
19343
19353
19361
19427
19429
19437
19452
19454
19492
19502
19504
19530
19554
19566
19568
19569
19590
19628
19629
19630
19660
19667
19673
19693
19697
19779
19780
19861
19887
19900
19902
19908
19910
19980
20027
20029
20032
20050
20051
20066
20068
20090
20105
20106
20110
20133
20198
20203
20218
20236
20246
20309
20336
20450
20519
20520
20521
20612
20646
20648
20649
20653
20670
20671
20701
20724
20727
20728
20729
20739
20753
20763
20769
20773
20779
20780
20925
20933
20960
20965
20967
20977
21039
21097
21100
21180
21235
21236
21240
21294
21298
21314
21410
21432
21437
21447
21508
21583
21587
21615
21626
21751
21756
21757
21758
21838
21918
21920
21921
21935
21936
21946
21953
21980
22023
22034
22039
22041
22053
22094
22112
22180
22185
22186
22214
22223
22233
22245
22257
22266
22267
22270
22271
22272
22281
22288
22311
22363
22380
22383
22384
22386
22398
22406
22411
22415
22421
22442
22459
22585
22609
22611
22647
22707
22709
22713
22716
22717
22719
22720
22735
22748
22796
22797
22856
22863
22865
22899
22970
23030
23032
23034
23448
23464
23466
23467
23529
23545
23546
23660
23662
23687
23725
23812
23813
23821
23823
23827
24114
24191
24505
24508
24510
24527
24528
24538
24539
24543
24745
24758
24805
24807
24897
24900
25277
25350
25471
25546
25712
25713
25753
25759
25781
26603
26674
26679
26684
26751
26942
26948
27058
27067
27093
27469
27710
27715
27740
27813
27814
27832
27895
27914
27915
27924
27930
27936
27944
28528
28564
28619
28659
28664
28665
28667
28744
28781
28795
28796
28797
28799
28802
28810
28812
28865
29051
29055
29068
29102
29116
29166
29255
29268
29274
29275
29304
29312
29313
29319
29338
29343
29348
29361
29405
29406
29418
29422
29431
29434
29455
29497
29503
29507
29508
29509
29511
29512
29513
29609
29611
29644
29646
29647
29648
29676
29690
29694
29698
29712
29717
29724
29733
29734
29736
29737
29739
29741
29750
29751
29756
29758
29784
29789
29790
29791
29818
29819
29822
29861
29862
29863
29880
29890
29891
29892
29894
29897
29914
29943
29960
30020
30071
30154
30182
30229
30300
30302
30354
30383
30428
30439
30491
30535
30556
30574
30579
31064
31073
31255
32421
32577
32578
42082
42336
43115
43119
43121
43123
43126
43862
45415
45667
45706
45714
45730
45742
45743
45767
46160
46916
46975
46984
[ 203 ]
2923
2925
2970
2971
3241
3351
3356
3411
3466
4026
4032
4099
4202
4640
4681
4703
4725
4728
4733
4810
4855
4868
4884
4937
4939
4958
4966
4967
5017
5018
5019
5025
5054
5066
5072
5073
5085
5090
5091
5099
5103
5127
5139
5141
5146
5167
5198
5208
5210
5211
5212
5213
5232
5250
5259
5293
5302
5324
5326
5336
5339
5341
5343
5346
5356
5373
5374
5414
5421
5468
5545
5659
5697
5709
5714
6043
6354
6394
6405
6419
6424
6425
6426
6451
6483
6489
6495
6496
6497
6498
6524
6529
6655
6814
6824
6828
6829
6830
6970
7050
7550
7576
7577
7642
7847
7901
7968
7986
7987
8124
8251
8278
8279
8280
8287
8302
8303
8304
8306
8322
8325
8350
8418
8442
8444
8642
8659
8668
8681
9275
9282
9285
9313
9314
9316
9380
9383
9498
9682
9684
9752
9781
9989
10042
10532
11210
12685
12693
12701
12703
12705
12707
12714
12718
12720
12726
12727
12728
12729
12791
12814
12828
12844
12851
12866
12877
12890
12901
12907
12908
12909
12910
12913
12914
12916
12917
12933
12941
12942
12964
12965
12977
12983
12986
13000
13011
13048
13058
13063
13065
13071
13184
13210
13253
13255
13364
13367
13461
13736
13743
13753
13755
13765
13848
13876
13902
13903
14156
14160
14198
14363
14403
14405
14407
14411
14414
14428
14470
14483
14495
14501
14620
14624
14625
14628
14671
14672
14673
14696
14741
14745
14749
14765
14861
14866
14894
14895
14900
14986
15002
15006
15023
15025
15173
15178
15194
15205
15209
15211
15250
15322
15340
15453
15488
15491
15499
15503
15505
15531
15615
15617
15651
15690
15693
15703
15713
15715
15763
15764
15773
15840
15844
15879
15880
15882
15886
15905
15914
15920
15926
16081
16094
16145
16164
16165
16167
16168
16170
16171
16177
16190
16191
16193
16209
16395
16416
16469
16470
16496
16497
16500
16502
16508
16522
16523
16535
16539
16553
16591
16610
16630
16687
16722
16723
16724
16734
16739
16740
16745
16749
16751
16755
16767
16774
16867
16871
16874
16876
16882
16887
16897
16950
16960
16966
16969
17050
17051
17129
17134
17138
17155
17211
17221
17228
17272
17277
17409
17444
17451
17470
17498
17542
17546
17616
17626
17669
17670
17686
17706
17707
17709
17734
17738
17739
17741
17775
17811
17831
17909
17912
17913
17922
17944
17968
17980
17981
18016
18020
18021
18035
18043
18047
18077
18145
18159
18182
18306
18359
18403
18417
18436
18439
18447
18448
18469
18472
18479
18482
18494
18497
18504
18506
18512
18514
18527
18528
18540
18548
18643
18767
18837
18839
18848
18849
18858
18860
18862
18865
18894
18986
19000
19002
19031
19043
19079
19089
19098
19105
19106
19109
19110
19111
19112
19117
19121
19129
19222
19312
19321
19336
19338
19341
19363
19364
19367
19394
19395
19397
19398
19403
19404
19414
19420
19422
19433
19439
19453
19499
19546
19547
19550
19555
19556
19574
19576
19601
19603
19631
19632
19641
19648
19669
19672
19845
19853
19855
19858
19869
19890
19897
19903
19907
19916
19917
20002
20034
20072
20084
20127
20180
20210
20228
20232
20245
20255
20311
20685
20700
20721
20737
20741
20746
20749
20750
20757
20776
20777
20787
20848
20859
20861
20862
21030
21047
21077
21086
21173
21216
21222
21231
21238
21239
21246
21269
21273
21325
21434
21620
21761
21795
21844
21848
21857
21862
21863
21877
21878
21919
21931
22024
22065
22079
22126
22151
22152
22153
22154
22173
22179
22182
22205
22208
22215
22219
22225
22243
22248
22253
22254
22259
22260
22274
22282
22284
22289
22293
22294
22353
22359
22360
22381
22401
22403
22456
22477
22612
22613
22614
22615
22635
22636
22665
22667
22668
22706
22718
22721
22726
22729
22731
22737
22855
22892
22894
22895
22900
22901
22955
22968
23014
23016
23048
23251
23252
23254
23330
23408
23457
23458
23461
23462
23465
23515
23526
23528
23589
23635
23655
23656
23658
23661
23716
23718
23810
23811
23824
23828
24102
24111
24112
24113
24119
24128
24134
24145
24150
24151
24152
24153
24182
24530
24531
24555
24567
24759
24808
24809
24813
25346
25470
25473
25547
25643
25767
25788
25789
25809
25853
25984
26504
26535
26605
26625
26629
26631
26675
26681
26698
26723
26727
26744
26747
26748
26758
26797
26940
26949
26952
27060
27557
27695
27702
27711
27714
27718
27811
27812
27817
27818
27819
27820
27831
27833
27835
27836
27868
27877
27878
27882
27883
27931
27941
28229
28236
28242
28510
28555
28561
28571
28609
28610
28611
28616
28618
28638
28652
28661
28662
28679
28704
28726
28727
28743
28785
28787
28801
28803
28811
28813
28814
28817
28832
28841
28863
28871
28957
29052
29053
29054
29073
29077
29093
29097
29105
29107
29110
29134
29135
29139
29141
29143
29146
29161
29162
29170
29179
29223
29234
29244
29253
29254
29262
29280
29315
29316
29318
29388
29403
29413
29421
29432
29438
29440
29506
29518
29543
29544
29547
29551
29552
29557
29558
29561
29608
29629
29642
29645
29661
29664
29668
29675
29685
29688
29689
29695
29696
29710
29723
29726
29735
29748
29749
29755
29786
29806
29813
29814
29816
29826
29832
29833
29855
29875
29878
29883
29895
29901
29902
29926
29942
29989
30019
30021
30023
30025
30026
30029
30030
30037
30051
30155
30176
30180
30181
30183
30227
30233
30299
30304
30308
30310
30312
30323
30326
30327
30328
30330
30335
30336
30340
30341
30345
30384
30390
30427
30429
30437
30462
30495
30530
30538
30565
30567
30572
30573
30666
30750
31058
31062
31067
31070
31074
31092
31143
31152
31153
31256
31343
31596
31931
31941
32422
32435
32576
35691
35694
35778
41385
41386
41398
41405
42078
42136
42153
42164
42203
42337
43132
43180
44160
44161
44362
44365
44366
45120
45633
45668
45692
45693
45709
45710
45713
45750
46262
46263
46794
46976
46977
47516
[ 204 ]
2832
2873
2978
2979
2981
3275
3412
3429
3437
3453
4131
4953
4956
5021
5024
5026
5032
5055
5056
5058
5060
5062
5063
5067
5069
5070
5095
5195
5200
5340
5677
5715
5848
6492
6493
6499
6503
6505
6708
6839
6840
6845
7014
7048
7153
7339
7904
8012
8034
8131
8167
8269
8281
8286
8309
8323
8340
8348
8353
8355
8417
8431
8432
8438
8439
8440
8532
8565
8674
8682
9309
9310
9311
9315
10043
12675
12688
12692
12696
12697
12699
12712
12717
12719
12732
12738
12818
12831
12858
12859
12865
12872
12932
12935
12938
12996
12998
13012
13013
13026
13183
13215
13220
13234
13664
13682
13901
13912
13970
13976
14012
14033
14044
14471
14486
14622
14728
14738
14773
14806
14831
14860
14896
14911
14927
15007
15009
15024
15103
15159
15161
15167
15174
15193
15208
15213
15230
15233
15234
15238
15367
15383
15446
15447
15450
15476
15479
15481
15483
15485
15486
15487
15497
15500
15504
15508
15523
15527
15530
15543
15559
15601
15612
15622
15625
15649
15655
15677
15688
15689
15691
15698
15702
15765
15866
15930
15933
15934
15992
16148
16157
16235
16417
16423
16424
16434
16446
16448
16458
16464
16465
16466
16467
16468
16473
16475
16487
16488
16495
16499
16503
16514
16525
16533
16536
16546
16548
16550
16569
16570
16587
16597
16601
16620
16623
16631
16681
16697
16698
16719
16721
16736
16738
16756
16758
16764
16870
16879
16886
16894
16895
16896
16968
17041
17072
17166
17268
17274
17276
17431
17525
17540
17617
17716
17720
17744
17756
17759
17762
17767
17773
17797
17860
17908
17910
17911
17921
18051
18052
18164
18167
18323
18325
18345
18380
18381
18398
18427
18432
18443
18445
18453
18454
18462
18466
18471
18491
18492
18498
18500
18530
18535
18574
18585
18598
18638
18642
18732
18799
18803
18836
18859
18864
18912
18913
18916
18917
18918
18921
18955
18992
19011
19035
19041
19045
19046
19053
19055
19075
19100
19122
19125
19248
19314
19388
19391
19396
19399
19400
19409
19410
19423
19430
19497
19507
19548
19557
19558
19560
19563
19671
19848
19852
19856
19904
19918
20033
20035
20037
20069
20073
20075
20083
20114
20177
20178
20183
20185
20187
20189
20190
20206
20312
20313
20744
20747
20819
20847
20855
20879
20957
20989
21001
21033
21043
21123
21181
21220
21276
21277
21288
21300
21323
21832
21835
21876
21890
21892
21949
22031
22174
22177
22178
22202
22207
22218
22220
22226
22232
22247
22249
22261
22264
22290
22298
22328
22344
22361
22362
22385
22399
22432
22433
22439
22487
22603
22604
22605
22608
22620
22633
22639
22642
22697
22705
22714
22722
22723
22749
22795
22799
22800
22801
22844
22903
22909
22938
22949
22954
22964
22966
22973
22992
22996
22997
22998
22999
23002
23011
23021
23022
23038
23051
23054
23256
23274
23287
23319
23320
23331
23410
23446
23451
23452
23473
23474
23513
23521
23525
23537
23542
23548
23567
23590
23591
23615
23619
23620
23634
23651
23668
23726
23735
23736
23739
23761
23781
23793
23831
24002
24056
24082
24104
24116
24118
24122
24123
24125
24129
24131
24135
24139
24157
24159
24160
24161
24163
24183
24203
24265
24334
24525
24529
24534
24552
24806
25282
25318
25320
25324
25344
25358
25363
25364
25372
25403
25404
25418
25422
25481
25537
25676
25722
25763
25764
25784
25810
25820
25821
25985
26375
26503
26505
26537
26558
26561
26567
26583
26586
26623
26636
26718
26737
26759
26927
26950
27052
27582
27596
27606
27612
27676
27687
27696
27706
27717
27737
27769
27803
27808
27821
27829
27834
27853
27886
27937
27938
27940
28149
28230
28232
28241
28249
28459
28460
28502
28503
28505
28506
28513
28542
28556
28558
28560
28562
28566
28569
28585
28587
28599
28603
28620
28639
28644
28651
28654
28655
28657
28663
28678
28689
28692
28716
28724
28728
28763
28809
28815
28816
28839
28840
28843
28847
28850
28851
28855
28859
28870
28873
28874
29012
29085
29087
29095
29098
29114
29122
29129
29130
29133
29144
29158
29180
29186
29217
29251
29256
29257
29261
29263
29270
29272
29282
29287
29298
29344
29352
29359
29392
29395
29402
29419
29449
29450
29517
29536
29537
29546
29549
29554
29599
29607
29620
29625
29640
29643
29665
29666
29684
29716
29721
29730
29745
29760
29761
29762
29766
29767
29769
29798
29799
29831
29835
29837
29854
29858
29860
29871
29872
29876
29877
29879
29917
29918
29938
29941
29944
29945
29955
29957
29962
29975
29990
29993
30001
30027
30031
30032
30069
30073
30077
30082
30083
30085
30088
30101
30148
30149
30151
30152
30158
30159
30169
30171
30172
30178
30223
30230
30232
30241
30242
30243
30244
30263
30296
30297
30298
30305
30309
30315
30316
30321
30331
30332
30338
30339
30350
30352
30365
30366
30369
30379
30389
30391
30406
30412
30426
30435
30441
30460
30518
30527
30529
30542
30544
30545
30549
30550
30552
30563
30566
30568
30569
30570
30571
30584
30628
31057
31066
31068
31081
31094
31134
31135
31136
31138
31142
31147
31157
31158
31160
31161
31275
31276
31277
31278
31280
31282
31426
31428
31514
31566
31582
31583
31585
31588
31591
31597
31601
31630
31927
31942
32107
32400
32401
32412
32423
32436
32439
32448
32476
32569
32572
32582
35540
35686
35710
35779
35781
35794
41367
41368
41369
41373
41382
41388
41393
41394
41396
41399
41411
41815
41935
41972
42021
42083
42104
42107
42126
42135
42187
42205
42210
42290
42294
42335
42342
42481
42718
43043
43069
43073
43080
43138
43382
43413
43482
43880
44360
44361
44471
44504
45126
45512
45676
45677
45680
45681
45682
45685
45686
45687
45691
45712
45748
45751
45947
45950
46025
46031
46158
46159
46257
46267
46268
46277
46907
46908
46939
46978
46981
46987
46995
46996
46997
50424
[ 205 ]
2894
2914
2917
3072
3112
3115
3316
3362
3430
3436
3452
4952
4955
5064
5190
5192
5193
5355
6420
6739
6782
7157
7200
7203
7263
7631
8152
8285
8289
8310
8421
8427
8430
8434
8435
8436
8437
8447
8452
9303
9306
9308
12668
12673
12683
12709
12710
12721
12744
12947
12990
12997
13074
13172
13173
13174
13179
13211
13228
13526
13573
13660
13683
14029
14030
14031
14402
14484
14724
14859
14869
14870
14871
14922
14926
14985
15008
15014
15163
15165
15179
15203
15207
15225
15226
15369
15443
15444
15445
15478
15482
15493
15495
15519
15524
15542
15544
15588
15627
15628
15643
15644
15645
15653
15654
15658
15670
15710
16147
16257
16289
16323
16391
16427
16429
16430
16436
16452
16453
16460
16461
16462
16491
16510
16529
16585
16588
16589
16590
16599
16662
16669
16699
16702
16706
16707
16714
16741
16742
16873
16888
17414
17865
17901
18152
18163
18195
18361
18441
18457
18524
18536
18801
18844
18925
18989
18993
19057
19059
19067
19068
19069
19126
19127
19249
19296
19297
19334
19375
19416
19493
19496
19508
19650
19850
19851
20036
20074
20326
20743
20745
20798
20801
20803
20809
20842
21003
21005
21121
21275
21836
21916
22037
22070
22076
22147
22216
22297
22299
22341
22342
22506
22601
22627
22637
22698
22755
22803
22807
22810
22820
22823
22847
22851
22907
22908
22910
22915
22946
22957
22965
23000
23023
23055
23058
23059
23074
23082
23188
23190
23226
23286
23322
23347
23447
23503
23510
23511
23531
23532
23543
23570
23576
23584
23586
23593
23599
23610
23613
23617
23618
23623
23624
23649
23650
23680
23689
23694
23712
23715
23738
23742
23745
23747
23748
23752
23756
23765
23792
23795
23797
23798
23801
23803
23805
23832
23834
23843
23850
23851
23853
23855
23856
23863
23866
23867
23880
23882
23884
23886
23922
23925
23935
23936
23940
23945
23953
23982
23994
23995
24048
24049
24072
24081
24083
24097
24100
24101
24105
24109
24117
24130
24132
24136
24137
24138
24148
24154
24155
24164
24173
24180
24184
24210
24219
24220
24261
24350
24493
24521
24526
24553
24558
25262
25263
25265
25281
25290
25293
25339
25362
25368
25392
25402
25405
25419
25423
25427
25428
25465
25497
25521
25708
25710
25740
25750
25770
25772
25786
25808
25819
25878
25948
25950
25951
25986
26157
26305
26364
26374
26378
26511
26526
26530
26531
26534
26536
26542
26551
26560
26568
26584
26588
26632
27130
27587
27624
27701
27727
27748
27789
27804
27806
27809
27828
27854
27934
27935
27939
27959
28054
28055
28073
28162
28180
28187
28201
28207
28228
28231
28234
28235
28238
28239
28244
28247
28248
28257
28367
28393
28435
28449
28467
28507
28516
28546
28550
28565
28567
28570
28582
28586
28595
28617
28622
28623
28626
28627
28630
28632
28640
28650
28656
28676
28677
28688
28690
28693
28695
28706
28710
28729
28774
28804
28805
28806
28844
28848
28858
28879
28884
28885
28887
28898
28899
28956
28980
28981
29028
29032
29035
29076
29092
29094
29096
29104
29112
29119
29120
29121
29128
29132
29163
29164
29165
29184
29185
29188
29194
29231
29240
29245
29249
29250
29260
29279
29283
29284
29286
29321
29357
29358
29401
29436
29444
29470
29538
29540
29598
29604
29605
29624
29626
29637
29641
29654
29727
29742
29763
29770
29771
29800
29801
29805
29807
29829
29830
29834
29888
29889
29951
29972
29995
30008
30009
30010
30012
30015
30038
30040
30046
30061
30065
30066
30067
30076
30079
30081
30084
30091
30100
30129
30131
30134
30136
30156
30162
30170
30174
30179
30184
30194
30196
30207
30217
30234
30239
30246
30247
30248
30258
30261
30294
30314
30333
30334
30337
30372
30375
30380
30387
30407
30453
30458
30459
30468
30471
30504
30515
30521
30523
30524
30540
30554
30580
30594
30627
30629
30631
30633
30636
30637
30642
30653
30654
30657
30659
30681
30749
30992
31039
31048
31056
31060
31086
31087
31093
31144
31165
31167
31169
31171
31174
31241
31249
31251
31252
31257
31283
31348
31366
31502
31549
31554
31565
31567
31568
31576
31578
31579
31586
31592
31593
31594
31600
31645
31686
31689
31693
31784
31796
31854
31865
31867
31928
32142
32205
32209
32284
32307
32315
32336
32341
32342
32344
32345
32399
32410
32411
32413
32424
32426
32429
32434
32437
32438
32451
32469
32470
32471
32472
32478
32540
32571
32573
32771
32976
33503
33504
34959
34960
34963
35538
35542
35543
35550
35570
35672
35674
35675
35692
35695
35703
35704
35708
35783
35795
38959
39171
41075
41091
41180
41182
41231
41377
41379
41381
41600
41794
41942
42020
42029
42030
42031
42032
42035
42071
42072
42076
42102
42112
42120
42165
42167
42195
42196
42208
42264
42265
42341
42344
42349
42716
43059
43182
43232
43318
43377
43383
43405
44122
44162
44163
44166
44363
44368
44378
44476
44508
44509
44510
44830
44839
44916
45053
45080
45083
45121
45621
45631
45679
45690
45946
45956
45960
45995
46007
46123
46302
46308
46309
46311
46312
46315
46356
46370
46676
46679
46793
46815
46913
46932
46938
46980
49921
[ 206 ]
2898
2913
2916
3320
3363
5057
5353
5354
6536
6797
7061
7249
8113
8284
8290
8359
8424
8559
8560
12670
12671
12672
12827
12993
13029
13031
13525
14846
14850
14851
15217
15227
15494
15521
15623
15888
16246
16247
16271
16282
16319
16381
16384
16387
16392
16431
16445
16450
16451
16527
16555
16571
16573
16598
16667
16696
16704
16708
16890
16891
17055
17219
18378
18460
18490
18798
18835
18904
19015
19018
19066
19418
19494
20677
20802
20805
20810
20818
20821
20840
20841
20849
22073
22149
22150
22176
22217
22441
22621
22624
22628
22781
22789
22791
22816
22818
22848
22849
22911
22958
23069
23078
23079
23122
23153
23155
23156
23244
23266
23332
23353
23354
23381
23387
23406
23434
23439
23441
23475
23476
23478
23488
23502
23505
23508
23538
23551
23566
23572
23577
23582
23605
23611
23616
23622
23631
23638
23639
23648
23688
23695
23700
23713
23723
23729
23737
23741
23743
23784
23788
23789
23802
23837
23844
23848
23852
23868
23869
23875
23877
23881
23883
23889
23918
23924
23927
23938
23942
23958
23971
23988
23990
23999
24003
24010
24017
24018
24036
24047
24064
24069
24071
24073
24074
24077
24078
24087
24088
24089
24091
24096
24140
24142
24174
24227
24228
24284
24519
24520
24551
25334
25360
25366
25379
25387
25395
25407
25440
25449
25458
25463
25520
25608
25687
25743
25745
25817
25818
25863
26030
26178
26223
26354
26385
26387
26389
26390
26392
26395
26408
26451
26501
26529
26540
26556
26562
26565
26566
26569
26593
26713
27070
27175
27215
27256
27279
27307
27310
27575
27593
27627
27657
27699
27794
27799
27802
28046
28047
28064
28067
28181
28182
28184
28198
28200
28212
28218
28227
28233
28245
28250
28251
28286
28381
28382
28409
28427
28438
28445
28446
28450
28455
28456
28458
28463
28468
28512
28515
28520
28521
28522
28523
28568
28573
28578
28584
28621
28645
28647
28648
28649
28674
28694
28702
28707
28709
28712
28723
28819
28823
28827
28893
28900
28962
28983
28985
29008
29009
29013
29026
29030
29038
29189
29213
29216
29221
29230
29237
29242
29259
29277
29289
29290
29446
29447
29571
29578
29583
29585
29586
29594
29595
29634
29635
29636
29655
29773
29774
29781
29870
29884
29885
29953
29958
29963
29973
29976
29982
29994
29999
30033
30042
30047
30059
30060
30063
30086
30089
30090
30104
30105
30124
30135
30140
30141
30160
30166
30173
30186
30197
30200
30201
30206
30209
30210
30211
30212
30215
30238
30256
30260
30289
30291
30360
30376
30377
30402
30410
30454
30466
30469
30478
30498
30502
30508
30511
30517
30525
30591
30592
30593
30602
30634
30635
30647
30651
30656
30677
30989
31046
31076
31077
31078
31079
31082
31083
31084
31085
31088
31089
31091
31096
31099
31108
31128
31151
31168
31184
31185
31197
31234
31247
31248
31267
31284
31336
31342
31351
31354
31355
31369
31370
31456
31474
31497
31522
31524
31546
31548
31555
31598
31602
31626
31627
31691
31696
31716
31719
31753
31754
31759
31767
31768
31771
31792
31925
31935
31937
31939
31940
31954
32034
32133
32201
32202
32203
32214
32245
32250
32313
32322
32328
32329
32330
32332
32339
32381
32398
32417
32420
32427
32428
32430
32432
32446
32447
32453
32454
32463
32468
32473
32475
32479
32481
32490
32492
32500
32504
32506
32533
32536
32537
32538
32541
32544
32547
32548
32560
32564
32568
32580
32583
32720
32763
32764
32768
32884
32927
32930
32971
32975
32978
32982
32995
32996
32997
33174
33357
33360
33379
33487
33509
33510
33513
33704
33708
33710
33712
34311
34955
34967
35226
35232
35286
35288
35360
35438
35439
35440
35442
35458
35459
35539
35545
35572
35671
35673
35683
35685
35786
35792
35869
35879
36064
36266
37538
37548
38438
38440
38445
38756
38758
38759
38765
38914
38958
38960
38965
39008
39153
39155
39160
39161
39166
39235
39275
40360
40371
41085
41094
41127
41162
41167
41177
41181
41213
41217
41256
41375
41376
41383
41427
41738
41801
41948
41985
42003
42022
42034
42046
42069
42073
42099
42105
42113
42122
42138
42150
42221
42256
42257
42258
42262
42281
42291
42345
42346
42350
42351
42482
43014
43093
43104
43159
43181
43197
43198
43200
43207
43208
43228
43230
43235
43283
43315
43330
43360
43361
43362
43365
43366
43373
43374
43378
43421
43433
43441
43442
43447
43479
43480
43501
43881
43882
43901
44074
44127
44168
44225
44322
44323
44330
44333
44369
44377
44464
44466
44472
44474
44480
44489
44503
44511
44663
44675
44838
44840
44915
45051
45115
45122
45124
45574
45581
45626
45627
45641
45683
45689
45785
45983
46006
46016
46095
46105
46110
46111
46120
46140
46144
46260
46303
46310
46354
46357
46372
46373
46389
46391
46563
46589
46673
46683
46698
46728
46759
46775
46777
46801
46877
46936
46953
46954
46960
46966
46967
46968
46970
46989
46993
47517
47634
47977
48131
49907
50426
[ 207 ]
2901
2915
3132
6791
6795
7023
7144
8111
8283
8562
9301
9302
12745
12747
15604
16370
16443
16444
16574
16694
16695
20830
20839
20852
22630
23064
23072
23095
23154
23181
23182
23193
23194
23235
23334
23355
23366
23371
23388
23420
23442
23483
23499
23552
23553
23556
23581
23597
23601
23608
23629
23632
23640
23647
23677
23678
23679
23683
23684
23702
23703
23711
23746
23871
23873
23876
23879
23897
23901
23915
23916
23919
23929
23931
23965
23983
23993
23996
24019
24020
24029
24032
24033
24034
24035
24038
24051
24052
24054
24055
24059
24066
24068
24075
24085
24166
24170
24172
24175
25257
25289
25312
25325
25337
25386
25450
25461
25654
25696
25744
25746
25949
25956
26162
26175
26207
26249
26306
26335
26336
26365
26370
26383
26388
26393
26396
26453
26489
26494
26553
26573
26576
26634
26873
26890
26902
27152
27154
27163
27174
27221
27270
27321
27322
27629
27641
27753
27786
27795
27800
27825
27990
28042
28044
28071
28072
28118
28164
28165
28168
28173
28186
28191
28197
28202
28246
28264
28320
28341
28342
28363
28368
28373
28375
28377
28384
28421
28434
28444
28479
28482
28491
28517
28518
28519
28547
28583
28696
28875
28888
28889
28891
28895
29023
29125
29126
29127
29190
29206
29212
29241
29291
29292
29581
29587
29596
29633
29772
29967
29968
29977
30126
30128
30137
30138
30139
30142
30185
30189
30192
30204
30214
30399
30403
30404
30405
30442
30455
30456
30482
30483
30487
30507
30589
30621
30623
30630
30640
30648
30690
30751
31026
31031
31042
31043
31090
31105
31109
31110
31120
31186
31220
31232
31238
31244
31246
31265
31288
31290
31308
31309
31333
31334
31338
31356
31358
31363
31368
31377
31394
31409
31419
31436
31450
31473
31476
31477
31499
31501
31518
31521
31532
31553
31569
31606
31616
31621
31655
31674
31687
31703
31705
31709
31713
31717
31743
31744
31752
31757
31758
31760
31770
31782
31819
31822
31834
31835
31836
31873
31921
31949
31963
32035
32037
32231
32236
32239
32241
32242
32249
32252
32253
32277
32278
32279
32302
32311
32312
32331
32334
32347
32353
32354
32356
32374
32391
32442
32456
32459
32488
32491
32494
32496
32499
32503
32508
32511
32515
32516
32519
32521
32529
32530
32531
32532
32542
32546
32550
32552
32553
32561
32566
32593
32607
32608
32616
32617
32710
32717
32725
32726
32727
32759
32765
32766
32799
32801
32825
32865
32885
32899
32925
32926
32932
32933
32934
32969
32972
32974
32977
32992
32993
33083
33182
33296
33314
33375
33381
33467
33484
33486
33489
33494
33502
33516
33541
33705
33713
33714
33857
33865
33870
34312
34944
34956
34958
34962
34969
34975
34976
34978
34982
35022
35023
35060
35061
35111
35148
35196
35205
35221
35231
35245
35361
35366
35367
35456
35457
35460
35476
35536
35537
35544
35546
35563
35662
35666
35676
35680
35697
35714
35725
35726
35760
35763
35774
35776
35788
35796
35797
35807
35819
35821
35865
36046
36169
36541
36602
36916
37455
37533
37535
37536
37539
37545
37696
37999
38171
38255
38437
38442
38446
38481
38482
38483
38485
38486
38519
38520
38529
38697
38701
38752
38755
38757
38763
38915
38962
38964
39000
39002
39035
39123
39154
39156
39158
39226
39228
39234
39254
39260
39270
39301
39817
39818
39821
40186
40261
40359
40361
40377
40537
40572
40751
40861
41014
41090
41092
41093
41099
41356
41360
41362
41363
41364
41414
41422
41423
41425
41460
41601
41603
41860
41862
41920
41930
41944
41946
42005
42023
42026
42028
42037
42048
42049
42054
42068
42094
42098
42226
42273
42297
42298
42325
42364
42371
42372
42374
42620
43005
43007
43158
43162
43176
43196
43206
43226
43227
43231
43342
43356
43359
43380
43396
43399
43404
43428
43434
43435
43436
43438
43440
43444
43450
43458
43459
43647
43899
43902
43905
43978
43985
44005
44128
44169
44171
44196
44199
44200
44205
44210
44227
44230
44319
44320
44324
44370
44376
44381
44401
44453
44456
44465
44473
44500
44502
44507
44517
44917
44920
44929
44958
44959
44968
44994
45047
45049
45070
45096
45114
45125
45487
45494
45497
45949
46032
46034
46035
46099
46114
46116
46119
46124
46125
46136
46141
46285
46291
46293
46294
46295
46298
46321
46323
46343
46345
46375
46377
46385
46387
46390
46537
46539
46564
46565
46581
46606
46610
46654
46677
46696
46697
46729
46730
46735
46736
46738
46753
46760
46779
46790
46791
46800
46808
46817
46840
46841
46869
46937
46948
46949
46951
46952
46963
47083
47084
47518
47532
47533
47615
48129
48427
49217
49824
[ 208 ]
16279
20816
20838
22623
22770
22774
22775
22827
22834
23183
23192
23209
23218
23225
23342
23343
23361
23362
23364
23373
23433
23491
23554
23564
23630
23642
23644
23645
23691
23704
23705
23707
23708
23838
23841
23903
23907
23917
23920
23930
23932
23956
23991
24000
24021
24042
24053
24060
24063
24065
24168
24169
24215
24216
24225
24226
24229
25383
25456
25706
25816
25892
25895
25898
25900
26029
26143
26205
26210
26224
26228
26229
26234
26319
26320
26323
26398
26400
26407
26409
26483
26497
26888
26895
26912
26916
27156
27197
27245
27246
27276
27562
28039
28074
28185
28192
28196
28205
28321
28323
28329
28374
28385
28419
28424
28425
28451
28452
28469
28485
28807
28905
28908
28909
28915
29150
29195
29201
29202
29205
29293
29588
29597
29966
29970
30236
30266
30282
30457
30484
30485
30486
30501
30606
30710
30711
30905
30909
30941
30995
30996
31028
31030
31041
31044
31101
31107
31114
31119
31121
31129
31130
31179
31181
31182
31183
31199
31206
31223
31225
31227
31229
31230
31236
31239
31287
31314
31339
31364
31374
31381
31384
31410
31420
31422
31439
31488
31519
31538
31543
31605
31608
31676
31704
31706
31707
31710
31724
31732
31736
31737
31738
31741
31761
31762
31766
31769
31772
31787
31788
31808
31837
31842
31845
31879
31918
31923
31981
31987
31989
31998
32097
32101
32106
32227
32228
32234
32244
32246
32247
32248
32260
32350
32355
32379
32383
32384
32392
32433
32440
32455
32460
32467
32486
32489
32498
32505
32509
32512
32584
32586
32594
32595
32596
32597
32609
32615
32619
32625
32626
32627
32633
32690
32708
32714
32728
32747
32748
32773
32776
32785
32790
32792
32793
32798
32816
32826
32833
32834
32835
32866
32869
32879
32881
32896
32911
32919
32970
32973
32980
32981
32989
32990
32998
33009
33012
33013
33032
33042
33054
33125
33129
33143
33151
33152
33153
33158
33162
33198
33206
33227
33295
33297
33303
33304
33320
33323
33334
33464
33465
33496
33550
33591
33868
33869
33871
34300
34355
34888
34892
34914
34923
34941
34945
34946
34948
34950
34953
34971
34977
34979
34980
34984
34990
35021
35063
35114
35143
35151
35187
35195
35203
35206
35230
35280
35281
35282
35285
35290
35359
35371
35375
35397
35403
35404
35415
35432
35448
35452
35475
35488
35490
35500
35501
35526
35531
35533
35534
35552
35577
35625
35642
35647
35653
35663
35664
35665
35679
35701
35729
35745
35746
35798
35800
35802
35806
35818
35820
35876
35910
35911
35919
36059
36159
36173
36204
36206
36620
36621
36632
36846
37106
37448
37452
37460
37463
37540
37542
37543
37544
37561
37567
37570
37571
37580
37991
37996
37998
38000
38026
38132
38205
38257
38439
38447
38471
38472
38484
38514
38515
38517
38518
38580
38582
38604
38692
38693
38711
38740
38745
38747
38748
38750
38777
38783
38786
38790
38791
38793
38913
38916
38918
38919
38920
39010
39032
39096
39128
39130
39150
39157
39162
39163
39164
39229
39230
39231
39239
39240
39253
39256
39257
39272
39303
39386
39388
39668
39805
39814
39820
39822
39824
39825
39827
40222
40257
40260
40288
40294
40338
40366
40368
40379
40381
40382
40530
40867
41043
41083
41086
41096
41110
41150
41183
41246
41259
41294
41334
41336
41345
41346
41350
41351
41355
41359
41372
41421
41426
41435
41447
41449
41602
41861
42040
42041
42042
42050
42058
42060
42065
42066
42092
42177
42234
42277
42330
42363
42366
42368
42369
42373
42385
42987
43010
43012
43033
43090
43205
43210
43271
43273
43279
43285
43286
43313
43327
43328
43329
43350
43358
43400
43401
43425
43430
43431
43439
43445
43451
43453
43730
43896
43904
43908
43918
43962
44031
44032
44033
44040
44041
44170
44185
44188
44194
44195
44202
44219
44231
44232
44249
44285
44291
44306
44318
44325
44328
44329
44371
44380
44405
44448
44450
44452
44459
44463
44483
44512
44521
44522
44523
44524
44525
44700
44722
44731
44733
44734
44747
44826
44827
44856
44857
44883
44931
44935
44943
44944
44950
44955
44962
44965
45493
45496
45540
45557
45559
45564
45800
45808
45952
46008
46019
46033
46061
46077
46090
46101
46112
46128
46216
46283
46286
46288
46341
46342
46352
46361
46362
46384
46455
46524
46534
46566
46572
46573
46592
46593
46613
46616
46618
46621
46647
46652
46678
46685
46686
46687
46693
46695
46731
46750
46751
46754
46755
46758
46761
46807
46826
46831
46843
46852
46866
46868
46991
47521
48139
48384
48417
48970
49090
49597
49700
49701
49803
49894
49906
50427
[ 209 ]
23126
23336
23337
23359
23365
23500
23626
23628
23641
23692
23911
23912
23913
23992
23997
24230
25681
25703
25704
25893
26026
26116
26191
26225
26227
26230
26248
26326
26327
26402
26406
26492
26498
26913
27218
27219
28024
28085
28193
28322
28333
28356
28357
28395
28405
28443
28474
28476
28477
28483
28914
28927
28931
28934
28951
28952
29211
29590
30235
30269
30271
30273
30607
30698
30702
30709
30803
30834
30879
30880
30921
30950
30956
31017
31029
31104
31118
31176
31195
31198
31202
31203
31216
31222
31224
31237
31298
31304
31306
31310
31311
31312
31321
31328
31329
31360
31389
31414
31527
31530
31609
31611
31615
31699
31725
31726
31735
31739
31740
31747
31748
31763
31764
31778
31786
31812
31821
31831
31841
31988
32001
32096
32220
32243
32254
32320
32325
32349
32375
32377
32378
32385
32386
32431
32482
32485
32611
32612
32630
32632
32640
32658
32660
32675
32686
32687
32688
32689
32706
32712
32713
32755
32758
32786
32794
32795
32807
32808
32817
32821
32822
32846
32848
32851
32858
32863
32864
32903
32913
32915
32918
32936
32938
32939
32967
33031
33052
33057
33059
33063
33111
33115
33116
33159
33161
33166
33170
33181
33208
33218
33220
33235
33249
33301
33306
33307
33312
33319
33321
33347
33349
33364
33382
33413
33482
33485
33497
33569
33570
33611
33809
33866
33950
34035
34287
34304
34306
34353
34368
34830
34887
34889
34908
34909
34916
34925
34930
34932
34935
34942
34943
34947
34952
34992
35031
35032
35033
35037
35110
35115
35117
35140
35162
35165
35173
35194
35204
35229
35235
35243
35273
35274
35292
35310
35311
35372
35399
35411
35412
35413
35416
35417
35425
35426
35427
35454
35517
35524
35525
35535
35624
35626
35639
35640
35641
35645
35646
35661
35668
35716
35723
35724
35731
35735
35739
35762
35768
35799
35804
35822
35835
35838
35841
35842
35843
35856
35859
35921
35965
35976
36053
36061
36120
36122
36164
36313
36456
36584
36812
36915
36993
37368
37426
37451
37562
37563
37564
37568
37572
37669
37689
37690
37705
37746
37750
37760
37797
37798
37805
37869
37985
37989
37993
37994
38001
38025
38042
38043
38049
38130
38204
38206
38210
38216
38218
38219
38221
38226
38227
38228
38253
38254
38258
38260
38379
38434
38435
38436
38449
38470
38479
38491
38498
38512
38513
38516
38523
38524
38528
38530
38534
38555
38559
38560
38561
38574
38576
38578
38581
38585
38587
38597
38694
38695
38703
38707
38709
38718
38746
38749
38761
38774
38776
38779
38780
38787
38887
39013
39017
39021
39058
39101
39133
39136
39138
39241
39259
39261
39265
39266
39267
39302
39356
39401
39402
39403
39457
39806
39826
40189
40204
40213
40220
40259
40263
40264
40284
40287
40296
40304
40326
40330
40355
40364
40365
40567
40570
40610
41087
41111
41116
41269
41297
41299
41300
41302
41305
41306
41315
41316
41324
41337
41341
41347
41348
41349
41352
41358
41361
41419
41420
41606
41607
42038
42062
42357
42359
42362
42367
42382
42383
42384
42386
42978
43174
43204
43261
43276
43278
43339
43368
43370
44043
44045
44049
44067
44073
44076
44186
44235
44282
44292
44311
44316
44461
44462
44526
44527
44658
44701
44707
44730
44742
44750
44753
44819
44825
44833
44837
44853
44855
44884
44889
44890
44894
44896
44948
44953
44966
44976
44991
45013
45558
45560
45561
45562
45806
46014
46042
46044
46072
46205
46328
46340
46347
46349
46363
46378
46447
46526
46536
46548
46549
46554
46574
46575
46607
46611
46612
46620
46639
46643
46650
46651
46655
46660
46661
46672
46709
46749
46806
46827
46842
46845
46848
46850
46853
46854
46870
46895
47082
47156
47360
47531
48121
48147
48178
48514
49125
49689
49694
49800
49805
49812
49813
49896
49927
49928
[ 210 ]
23338
23341
23367
23908
23910
26114
26894
26898
27202
28075
28076
28079
28484
28906
28921
28923
28926
28930
28932
28938
30267
30833
30885
30899
30908
30915
30920
30942
30951
31112
31113
31124
31177
31205
31299
31302
31303
31467
31487
31542
31698
31904
31922
32219
32222
32376
32387
32390
32483
32484
32610
32629
32631
32639
32643
32649
32657
32661
32676
32682
32691
32692
32735
32745
32746
32778
32779
32780
32784
32787
32797
32805
32813
32814
32818
32827
32847
32855
32912
32988
33037
33039
33047
33051
33064
33110
33160
33178
33202
33209
33210
33232
33261
33300
33305
33315
33316
33318
33322
33343
33354
33370
33384
33398
33469
33475
33493
33498
33545
33548
33558
33697
33698
33700
33715
33747
33894
33907
34027
34161
34163
34228
34284
34343
34347
34357
34367
34370
34436
34437
34482
34497
34749
34804
34833
34875
34879
34904
34907
34911
34920
34922
34928
34936
34940
34986
34987
34988
35003
35006
35008
35009
35029
35055
35056
35083
35092
35093
35094
35097
35105
35154
35157
35170
35175
35176
35178
35179
35181
35189
35217
35238
35241
35291
35308
35309
35314
35377
35391
35400
35401
35402
35410
35418
35507
35519
35528
35588
35631
35643
35648
35650
35721
35722
35767
35803
35833
35836
35847
35857
35916
35922
35933
35953
35993
35997
36040
36055
36056
36058
36121
36123
36133
36157
36171
36172
36446
36455
36462
36499
36582
36583
36619
36943
36944
36959
37077
37253
37367
37454
37569
37643
37654
37694
37715
37716
37736
37747
37754
37759
37762
37765
37790
37791
37800
37814
37901
37908
37986
37992
38022
38055
38060
38094
38167
38174
38185
38208
38211
38212
38214
38215
38220
38240
38282
38377
38378
38430
38431
38433
38448
38459
38469
38473
38488
38490
38493
38495
38497
38502
38526
38532
38545
38566
38567
38570
38577
38589
38598
38601
38602
38606
38609
38680
38690
38727
38739
38789
38794
38795
38796
38812
38820
38923
38947
38948
38979
39077
39135
39264
39409
39458
39665
39669
39703
39795
39802
39915
40065
40087
40107
40221
40256
40266
40267
40279
40295
40297
40339
40343
40352
40375
40524
41327
41329
41335
41339
41343
42361
42381
42387
43218
43249
43251
43258
43260
43287
43289
43293
43297
43974
44025
44066
44187
44275
44289
44295
44373
44384
44445
44617
44751
44820
44824
44860
44861
44862
44863
44864
44869
44870
44871
44875
44876
44877
44880
44897
44923
44963
44969
44975
44978
44992
45006
45008
45009
45010
45014
45015
45151
45544
45565
45807
46087
46096
46326
46331
46332
46419
46463
46507
46508
46513
46518
46523
46551
46557
46558
46570
46623
46638
46656
46657
46691
46692
46713
46732
46834
46857
46858
46860
46887
47079
47081
47198
47230
47512
47835
47893
47956
47966
48133
48146
48152
48348
48408
48431
48483
48998
49071
49082
49124
49254
49333
49335
49344
49347
49380
49403
49620
49656
49690
49713
49769
49801
49809
49866
49868
49895
49911
49914
[ 211 ]
25899
26115
26189
28078
28401
30275
30852
30855
30922
30923
30939
31294
31305
31466
31733
32636
32638
32648
32663
32664
32666
32693
32695
32697
32698
32700
32701
32703
32751
32752
32754
32783
32788
32811
32830
32844
32873
32904
33104
33192
33194
33242
33385
33390
33478
33561
33749
33899
33920
34060
34123
34124
34164
34211
34222
34240
34320
34350
34356
34379
34446
34496
34701
34731
34733
34742
34775
34801
34823
34873
34878
34880
34895
34896
34897
34900
34902
34903
34934
34983
34993
35001
35010
35028
35035
35038
35046
35050
35052
35053
35054
35070
35074
35082
35089
35090
35099
35100
35101
35132
35141
35156
35168
35174
35177
35180
35182
35392
35496
35516
35620
35622
35623
35628
35629
35633
35634
35635
35636
35644
35649
35720
35736
35755
35756
35823
35825
35850
35925
35932
35947
35948
35954
36124
36142
36338
36376
36417
36441
36451
36467
36554
36555
36741
36776
36977
36998
37598
37605
37651
37656
37658
37733
37737
37739
37748
37753
37755
37766
37769
37781
37784
37788
37789
37794
37795
37799
37801
37811
37828
37897
37909
37910
37987
37995
38051
38057
38095
38097
38098
38100
38187
38192
38194
38195
38197
38201
38207
38230
38271
38420
38450
38451
38453
38454
38455
38457
38461
38474
38492
38500
38505
38506
38569
38571
38573
38611
38623
38635
38676
38679
38681
38688
38689
38702
38725
38726
38728
38729
38731
38733
38744
38772
38865
38867
38926
38927
38935
39061
39070
39244
39262
39459
39656
39670
39674
39778
39798
39799
39829
39834
39886
39887
39930
39932
40025
40054
40060
40088
40115
40180
40215
40217
40218
40250
40255
40268
40269
40277
40278
40285
40301
40302
40309
40340
40342
40350
40351
40356
40363
40376
41115
41325
41328
41330
42360
43211
43212
43214
43294
43299
43304
43307
43972
44046
44052
44070
44182
44183
44447
44783
44867
44868
44872
44874
44878
44879
44970
45011
45012
45543
45545
45546
45548
46334
46335
46337
46420
46422
46423
46424
46446
46462
46467
46469
46477
46502
46509
46515
46521
46525
46529
46568
46619
46625
46663
46664
46671
46690
46707
46714
46825
46847
47104
47218
47381
48160
48175
48176
49336
49339
49346
49398
49622
49633
49678
49838
49852
49853
49863
49867
[ 212 ]
30841
30848
30849
30853
30871
31214
32634
32646
32651
32662
32665
32696
32699
32733
33062
33387
33388
33626
33631
33941
33993
34006
34040
34084
34120
34138
34155
34212
34214
34219
34221
34225
34281
34321
34391
34396
34412
34454
34505
34629
34630
34645
34702
34743
34798
34881
34901
34906
35040
35041
35042
35072
35073
35075
35076
35077
35078
35079
35086
35107
35124
35127
35133
35184
35298
35327
35328
35347
35593
35597
35600
35603
35606
35607
35826
35830
35939
35945
35951
35955
36135
36155
36228
36337
36339
36413
36416
36439
36442
36443
36444
36445
37577
37594
37606
37650
37652
37657
37711
37729
37744
37758
37774
37777
37780
37809
37827
37829
37948
38029
38052
38093
38175
38191
38333
38456
38460
38462
38503
38504
38507
38617
38618
38626
38639
38663
38666
38678
38683
38720
38721
38735
38741
38872
38936
38937
38943
38944
39131
39243
39454
39455
39471
39636
39646
39658
39673
39675
39688
39699
39724
39884
39907
39934
40036
40048
40061
40083
40109
40110
40144
40159
40173
40179
40181
40192
40273
40276
40282
40289
41308
41331
42379
42380
43216
43217
43300
43305
43332
43973
44053
44614
44620
44822
44873
46426
46474
46475
46480
46516
46530
46559
46560
46627
46669
46670
46708
46715
46718
46720
47217
48492
49629
49681
49682
49998
49999
54738
54739
54740
[ 213 ]
30842
30872
30873
30898
32635
32654
33830
34129
34184
34201
34293
34400
34453
34472
34494
34518
34539
34597
34729
34882
34905
35183
35326
35595
35827
35828
35949
35950
35952
36380
36436
36440
36580
37596
37602
37722
37728
37741
37742
37767
37772
37778
37785
37786
37830
37904
38034
38190
38463
38621
38622
38645
38647
38671
38673
38684
38687
38924
38938
39473
39653
39654
39677
39679
39687
39711
39725
39732
39734
39744
39786
39800
39873
39891
39904
39905
39909
39926
40021
40035
40058
40089
40178
43295
44821
46437
46438
46440
46471
46517
46528
46628
46629
46630
46633
46634
47216
47228
47717
47791
47965
49338
49877
52973
53008
[ 214 ]
30844
34398
34401
34669
34756
35601
36128
37603
37610
37725
37727
38642
38656
38664
38686
39411
39412
39413
39445
39452
39651
39684
39686
39733
39880
39892
39893
39896
40041
40051
40099
40168
40171
46468
46632
47793
48172
[ 215 ]
30845
34403
34675
34727
38637
38670
38685
39685
39894
40166
40167
47792
[ 216 ]
35940
39430
39624
39895
52942
52949
[ 217 ]
39431
39947
39948
52959
[ 218 ]
52954
[ 219 ]
52951
52952
[ 225 ]
8998
16834
[ 226 ]
8996
8997
9000
9008
9009
9026
9046
9403
9405
[ 227 ]
3694
4540
4583
8983
8984
9010
9015
9032
9167
9222
9226
9401
9417
9430
10751
18112
[ 228 ]
3688
3692
3693
3801
3803
3847
4482
4496
4505
4541
4543
4544
4577
4580
4581
4582
4586
4600
4649
5972
8841
8985
8986
9011
9012
9014
9016
9017
9019
9021
9022
9024
9036
9038
9040
9044
9053
9054
9055
9074
9081
9090
9095
9101
9102
9126
9132
9135
9145
9168
9170
9218
9221
9233
9237
9239
9240
9355
9357
9398
9422
9428
9718
9884
10466
10721
10730
10733
11340
12625
13304
16840
18113
[ 229 ]
3571
3575
3576
3583
3584
3585
3592
3684
3686
3687
3768
3769
3804
3844
3850
4441
4476
4491
4492
4501
4546
4547
4569
4571
4572
4579
4587
4597
4608
4647
4650
5973
5979
6025
6029
8834
8836
8839
8840
9018
9023
9033
9037
9048
9058
9063
9064
9070
9071
9077
9080
9083
9087
9088
9091
9099
9100
9104
9105
9106
9111
9125
9128
9129
9137
9142
9143
9150
9151
9152
9156
9157
9162
9174
9219
9227
9236
9243
9244
9245
9259
9347
9353
9354
9366
9373
9481
9484
9715
9716
9963
9975
10356
10391
10461
10513
10600
10611
10614
10725
10727
10729
10738
10743
11169
11222
12064
12629
13303
14506
14516
14517
14566
16803
16811
16839
19750
29369
[ 230 ]
3254
3495
3500
3563
3565
3566
3568
3569
3579
3582
3588
3591
3595
3596
3602
3603
3622
3644
3695
3696
3700
3701
3702
3753
3755
3767
3814
3848
3854
3858
4005
4006
4479
4537
4538
4574
4575
4578
4589
4594
4601
4645
4655
4657
4898
5218
5225
5969
5976
5982
5986
6004
6010
6012
6016
6020
6024
6031
8837
9041
9042
9049
9050
9056
9057
9059
9066
9093
9094
9108
9112
9114
9117
9131
9134
9136
9140
9146
9153
9158
9160
9172
9173
9242
9246
9247
9251
9332
9343
9344
9346
9349
9350
9365
9551
9631
9713
9764
9777
9846
9849
9850
9883
9886
9894
10053
10340
10346
10355
10357
10366
10370
10378
10389
10392
10459
10460
10462
10463
10465
10469
10510
10522
10523
10524
10525
10526
10580
10581
10582
10586
10713
10740
11017
11020
11152
11156
11293
11350
11386
12062
12612
13264
13301
13319
13320
13330
13333
13337
13384
13385
13386
13395
13396
13399
13402
13451
14094
14138
14398
14527
14685
16788
16790
16812
17106
17949
18255
18277
18294
18297
19709
19724
19725
19747
19752
19762
19764
19766
19771
20892
20894
21822
26962
26972
26973
27903
29331
29332
29849
43124
[ 231 ]
2875
3212
3213
3214
3225
3229
3252
3255
3350
3489
3490
3491
3511
3514
3535
3537
3538
3539
3560
3578
3580
3581
3586
3590
3594
3601
3604
3605
3608
3611
3621
3628
3638
3645
3678
3679
3680
3683
3698
3699
3704
3720
3727
3750
3770
3800
3815
3849
3851
3990
3998
4001
4003
4529
4573
4592
4593
4637
4644
4653
4654
4675
4852
4922
5112
5216
5217
5223
5224
5238
5239
5240
5241
5971
5977
5978
6008
6009
6018
6019
6021
6022
6026
6032
8203
8215
8216
9118
9119
9121
9148
9250
9261
9334
9374
9442
9478
9619
9632
9708
9721
9725
9726
9727
9737
9738
9740
9742
9763
9765
9796
9805
9809
9817
9819
9820
9821
9833
9840
9873
9874
9878
9881
9882
9890
9897
9959
9967
9973
9974
10039
10265
10330
10350
10353
10354
10358
10360
10367
10368
10371
10375
10379
10386
10442
10443
10445
10454
10457
10458
10480
10497
10509
10515
10519
10527
10548
10558
10570
10576
10579
10591
10596
10601
10604
10618
10619
10675
10681
10714
10736
10737
11081
11116
11118
11123
11157
11181
11194
11195
11226
11284
11317
11353
11355
11359
11360
11370
11380
11480
11488
12613
12616
12617
12633
12634
12774
13110
13120
13133
13141
13265
13270
13282
13305
13316
13317
13318
13321
13325
13328
13329
13344
13348
13349
13390
13393
13398
13400
13415
13416
13417
13419
13420
13422
13424
13425
13434
13450
13472
13497
13891
14059
14073
14074
14080
14095
14097
14129
14134
14140
14394
14397
14399
14453
14511
14513
14521
14525
14537
14591
14592
14683
14686
14687
14689
14690
15047
16221
16789
16791
16851
17120
17127
17478
17479
17673
17950
18061
18062
18063
18065
18123
18124
18257
18273
18275
18278
18280
18281
18284
18285
18693
19622
19623
19705
19712
19715
19723
19735
19746
19753
19761
19773
19775
20239
20270
20893
20906
20916
20943
20986
21485
21581
22873
22876
22885
24381
24908
26754
26963
26967
26975
26999
27735
27904
29365
29366
29368
29487
29841
29842
30576
45704
45725
[ 232 ]
2942
2948
2950
3211
3216
3217
3219
3220
3223
3224
3226
3227
3228
3250
3256
3331
3337
3493
3498
3526
3534
3543
3546
3555
3562
3589
3599
3607
3612
3618
3619
3620
3623
3624
3631
3640
3642
3646
3647
3654
3655
3664
3665
3673
3674
3697
3705
3709
3715
3721
3730
3738
3751
3761
3765
3777
3811
3812
3818
3820
3821
3824
3831
3865
3867
3889
3907
3917
3918
3920
3925
3929
3938
3939
3940
3941
3972
3992
3996
4008
4009
4014
4228
4292
4534
4536
4591
4595
4610
4622
4666
4716
4717
4719
4846
4853
4912
4914
5111
5144
5158
5162
5215
5242
5254
5265
5274
5278
5987
5989
5991
5993
5995
5996
5998
6005
6046
6081
6322
6411
7019
7313
7321
7530
7730
7747
7882
7891
7892
7896
7908
7916
7925
7994
8199
8206
8207
8211
8222
8228
8230
8256
8262
9122
9262
9267
9388
9389
9458
9552
9556
9565
9580
9604
9605
9617
9625
9629
9630
9633
9639
9649
9655
9660
9661
9662
9702
9711
9712
9714
9729
9730
9731
9732
9733
9734
9743
9766
9769
9773
9776
9791
9792
9810
9831
9832
9835
9858
9860
9867
9868
9869
9879
9880
9921
9932
9952
9956
9958
9969
9972
9981
9982
9991
9992
9996
10024
10025
10026
10032
10264
10347
10363
10385
10393
10399
10438
10470
10502
10503
10505
10507
10547
10560
10571
10584
10589
10597
10603
10620
10664
10674
10684
10863
10868
11085
11213
11217
11231
11283
11289
11300
11311
11357
11358
11361
11362
11479
11490
11502
12615
12630
12631
12632
12637
12753
12754
12771
12772
12820
13112
13121
13135
13142
13158
13202
13263
13271
13273
13283
13285
13291
13311
13313
13323
13324
13339
13345
13346
13350
13392
13394
13412
13413
13414
13418
13429
13486
13582
13672
13702
13704
13732
13792
13818
13819
13820
13841
13844
13893
13906
13995
14001
14049
14055
14057
14069
14127
14131
14135
14137
14139
14141
14150
14375
14384
14387
14388
14391
14400
14452
14477
14536
14568
14569
14572
14577
14584
14588
14597
14606
14607
14609
14610
14613
14617
14642
14656
14717
15046
15154
15424
15437
15732
15792
15835
15870
15871
15903
15904
16220
16954
16955
17105
17107
17108
17112
17115
17117
17121
17141
17175
17176
17184
17185
17226
17232
17233
17242
17243
17455
17483
17484
17488
17492
17555
17821
17824
17837
17848
17933
17934
17936
17938
17942
17946
17970
17972
17989
17992
17994
17995
17997
17998
17999
18104
18106
18107
18108
18119
18120
18122
18264
18276
18283
18286
18287
18288
18292
18298
18300
18304
18554
18623
18664
18665
18692
18695
18696
18698
18752
18868
18871
18881
18882
19181
19186
19187
19188
19191
19316
19604
19605
19607
19616
19618
19655
19675
19760
19774
19777
20046
20047
20049
20052
20053
20088
20094
20095
20097
20099
20243
20258
20264
20267
20271
20274
20275
20867
20868
20898
20904
20907
20911
20935
20941
20942
20944
20985
21486
21510
21511
21512
21801
21825
21850
21940
22166
22279
22388
22397
22872
22874
22888
24303
24383
24384
24396
24478
24740
24744
24746
24818
25580
25718
25791
25793
26626
26645
26649
26651
26654
26655
26656
26728
26729
26743
26752
26756
26945
26946
26960
26961
26966
26976
26977
26978
26998
27001
27040
27839
27872
27901
27902
27905
27906
27908
27909
27945
28872
29050
29325
29326
29329
29336
29337
29364
29480
29482
29531
29532
29672
29708
29846
29850
29851
30532
41891
45666
45698
45716
45724
45726
45727
45736
45756
45759
[ 233 ]
2874
2876
2931
3196
3215
3221
3222
3238
3243
3249
3269
3333
3335
3340
3341
3401
3403
3441
3458
3470
3505
3507
3508
3525
3529
3531
3532
3541
3544
3549
3551
3557
3617
3641
3648
3653
3663
3675
3711
3717
3749
3823
3863
3871
3874
3896
3911
3919
3926
3931
3932
3935
3936
3942
3945
3947
3948
3963
4000
4002
4013
4135
4196
4229
4238
4532
4590
4678
4679
4712
4724
4844
4845
4848
4849
4913
4917
4928
4931
4932
4933
5075
5089
5110
5114
5115
5121
5154
5160
5161
5214
5249
5253
5258
5264
5276
5289
5294
5322
5337
5997
6000
6035
6036
6042
6069
6321
6323
6325
6334
6340
6584
6991
7017
7018
7020
7125
7126
7128
7129
7131
7135
7312
7319
7429
7518
7529
7531
7543
7545
7552
7572
7605
7648
7694
7732
7745
7753
7788
7789
7857
7894
7895
7897
7907
7910
7913
7926
7971
7972
7991
8059
8060
8076
8118
8120
8121
8122
8128
8143
8176
8177
8187
8194
8197
8198
8201
8209
8210
8213
8225
8233
8235
8238
8252
8264
8274
8275
8277
8300
8319
8327
8621
8628
8636
8662
9286
9329
9375
9386
9387
9451
9535
9536
9538
9541
9549
9550
9553
9559
9560
9562
9567
9568
9570
9571
9572
9579
9612
9616
9622
9627
9635
9637
9640
9642
9650
9651
9653
9654
9667
9668
9678
9679
9680
9686
9697
9700
9701
9703
9707
9710
9724
9755
9759
9770
9771
9780
9783
9787
9806
9811
9827
9836
9838
9857
9862
9863
9872
9891
9901
9922
9928
9929
9930
9937
9938
9943
9947
9949
9955
9957
9970
9980
9985
10028
10033
10045
10049
10342
10344
10398
10400
10404
10406
10421
10425
10439
10450
10456
10472
10473
10475
10491
10529
10537
10545
10546
10564
10565
10566
10567
10568
10577
10865
10870
11211
11212
11228
11281
11352
11477
12635
12636
12654
12761
12770
12863
13024
13037
13039
13114
13118
13125
13130
13132
13136
13137
13144
13146
13159
13164
13190
13194
13195
13197
13203
13204
13223
13248
13251
13261
13262
13269
13276
13284
13286
13310
13361
13365
13409
13428
13435
13448
13458
13473
13482
13493
13495
13500
13558
13579
13670
13671
13699
13700
13705
13706
13711
13712
13714
13731
13733
13786
13815
13816
13817
13827
13830
13840
13842
13846
13880
13899
13905
13923
13933
13934
13941
13946
13956
13957
13962
13986
13987
13988
13989
14000
14052
14064
14072
14076
14136
14142
14145
14163
14166
14167
14168
14170
14173
14300
14304
14370
14373
14389
14406
14417
14423
14474
14476
14532
14533
14534
14575
14580
14581
14582
14583
14602
14612
14629
14641
14657
14674
14675
14677
14692
14697
14705
14714
14716
14718
14747
14992
15017
15027
15045
15053
15055
15058
15149
15176
15361
15382
15409
15467
15515
15516
15631
15638
15679
15680
15681
15727
15736
15738
15787
15791
15794
15795
15796
15797
15836
15872
15874
15881
15883
16184
16204
16356
16770
16771
16884
16956
16963
17111
17125
17177
17189
17192
17204
17209
17214
17231
17239
17259
17424
17435
17436
17457
17467
17477
17482
17485
17493
17494
17495
17554
17556
17663
17728
17732
17786
17787
17788
17794
17828
17829
17833
17836
17841
17843
17844
17854
17926
17928
17929
17935
17943
17952
17954
17955
17965
18001
18002
18003
18013
18014
18025
18031
18060
18109
18121
18125
18126
18128
18129
18262
18279
18305
18317
18329
18330
18336
18337
18532
18553
18555
18557
18559
18572
18573
18621
18624
18655
18660
18666
18667
18669
18688
18689
18690
18691
18697
18699
18702
18710
18718
18719
18727
18748
18750
18753
18755
18818
18856
18867
18869
18879
18880
19116
19131
19171
19185
19329
19358
19455
19456
19615
19625
19627
19654
19677
19678
19692
19694
19711
19781
19842
20043
20048
20054
20055
20056
20057
20085
20086
20087
20091
20098
20101
20102
20103
20202
20226
20237
20238
20242
20259
20272
20277
20732
20766
20785
20863
20899
20902
20913
20920
20922
20938
20939
20948
20963
20966
20968
20971
20978
21493
21494
21497
21509
21846
21938
21939
21941
22163
22164
22365
22366
22375
22389
22391
22710
22732
22859
22860
22870
22871
22880
22891
22896
23013
23031
23328
23654
23814
23859
23860
24195
24199
24299
24378
24382
24385
24475
24480
24496
24512
24736
24756
24779
24811
24816
25347
25349
25531
25532
25534
25545
25585
25733
25794
25804
26360
26548
26599
26648
26650
26658
26661
26665
26689
26720
26730
26761
26802
26958
26959
26969
26970
26971
26981
26988
27004
27005
27006
27007
27038
27041
27057
27295
27296
27297
27304
27478
27682
27683
27684
27720
27725
27734
27736
27840
27845
27889
27898
27899
27900
27926
27927
27928
27946
27947
28529
28534
28535
28538
28540
29099
29175
29265
29302
29327
29328
29334
29340
29341
29362
29367
29382
29383
29385
29386
29391
29409
29410
29427
29453
29454
29479
29483
29493
29494
29495
29499
29502
29525
29530
29533
29562
29612
29617
29651
29663
29697
29704
29707
29753
29845
29852
29868
29896
29907
29928
30054
45696
45699
45702
45703
45722
45723
45728
45729
45734
45737
45740
45745
45746
45747
45753
45755
45758
45761
46915
46918
[ 234 ]
2868
2872
2930
2932
2933
2935
2962
3193
3198
3199
3202
3209
3210
3218
3235
3236
3239
3242
3244
3247
3259
3261
3262
3268
3270
3281
3283
3326
3327
3330
3336
3338
3339
3343
3355
3357
3367
3370
3408
3409
3410
3413
3423
3424
3425
3440
3461
3509
3527
3528
3530
3553
3634
3636
3637
3652
3661
3666
3706
3707
3710
3712
3737
3817
3832
3862
3866
3873
3875
3879
3885
3892
3905
3912
3921
3922
3943
3944
3950
3954
3958
3970
4012
4015
4101
4194
4240
4533
4625
4691
4705
4711
4714
4715
4854
4885
4940
5065
5068
5079
5087
5094
5104
5109
5145
5150
5156
5168
5186
5187
5188
5284
5290
5295
5296
5300
5303
5323
5327
6039
6040
6041
6044
6343
6344
6345
6523
6531
6632
6633
6648
6653
6664
6666
6676
6683
6707
6719
6827
6837
6919
6920
6944
6946
6947
6948
6972
6976
6989
6990
6992
7012
7021
7082
7113
7114
7119
7120
7139
7322
7323
7324
7325
7326
7418
7428
7430
7441
7443
7506
7507
7514
7515
7519
7520
7521
7523
7526
7527
7553
7564
7569
7570
7575
7580
7586
7591
7592
7593
7596
7601
7607
7609
7612
7646
7647
7649
7665
7692
7695
7750
7777
7785
7790
7797
7808
7824
7830
7834
7843
7846
7850
7858
7881
7885
7888
7903
7914
7917
7918
7921
7967
7973
7985
7997
7998
8032
8033
8058
8116
8117
8119
8123
8135
8137
8144
8154
8155
8178
8183
8188
8189
8192
8193
8212
8226
8234
8239
8249
8250
8254
8261
8265
8273
8326
8351
8620
8625
8627
8635
8637
8677
8695
8703
9276
9279
9284
9288
9290
9291
9292
9384
9385
9532
9539
9540
9542
9547
9548
9563
9578
9592
9596
9601
9606
9608
9610
9611
9613
9615
9621
9624
9641
9643
9646
9659
9663
9664
9665
9666
9670
9676
9677
9685
9690
9698
9723
9744
9750
9751
9782
9785
9788
9813
9825
9856
9926
9927
9940
9941
9942
9944
9951
10027
10031
10037
10046
10048
10384
10478
10492
10530
10534
10535
12724
12752
12777
12821
12838
12840
12846
12861
12931
12961
12963
13046
13059
13069
13078
13086
13087
13090
13117
13123
13124
13145
13156
13162
13186
13189
13192
13193
13196
13208
13222
13224
13237
13238
13243
13246
13247
13260
13274
13279
13308
13309
13312
13352
13356
13368
13369
13372
13436
13459
13462
13464
13474
13480
13483
13492
13501
13507
13509
13511
13516
13519
13538
13546
13547
13560
13562
13577
13668
13680
13681
13691
13694
13701
13716
13730
13735
13744
13783
13787
13797
13799
13801
13803
13805
13821
13823
13824
13825
13826
13831
13833
13837
13847
13849
13875
13884
13885
13915
13918
13925
13926
13929
13931
13932
13942
13943
13945
13947
13948
13955
13964
13965
13966
13968
13969
13983
13984
13993
13994
13999
14003
14005
14010
14016
14050
14051
14054
14056
14065
14100
14143
14151
14159
14174
14302
14364
14366
14367
14369
14374
14378
14409
14413
14421
14424
14425
14426
14430
14434
14436
14450
14454
14456
14465
14472
14473
14482
14489
14492
14579
14600
14601
14603
14605
14634
14695
14702
14706
14715
14719
14744
14748
14755
14761
14764
14987
15026
15042
15044
15051
15052
15057
15143
15171
15195
15210
15222
15416
15439
15441
15512
15532
15549
15555
15570
15572
15574
15578
15583
15637
15639
15640
15683
15687
15695
15722
15735
15739
15741
15759
15777
15778
15779
15793
15804
15807
15816
15817
15818
15825
15833
15885
15906
16144
16150
16163
16196
16210
16212
16222
16236
16332
16357
16359
16361
16401
16412
16505
16507
16515
16521
16559
16605
16607
16608
16737
16747
17047
17116
17123
17131
17135
17139
17146
17153
17154
17162
17173
17174
17180
17181
17183
17193
17195
17199
17200
17213
17223
17230
17237
17241
17246
17253
17264
17265
17407
17408
17425
17428
17429
17430
17434
17440
17447
17453
17458
17459
17461
17463
17465
17473
17503
17504
17509
17520
17543
17549
17553
17562
17563
17698
17722
17725
17730
17745
17747
17776
17777
17778
17779
17780
17791
17793
17796
17820
17838
17842
17845
17846
17856
17857
17859
17918
17923
17927
17945
17956
17960
17966
17977
17978
18007
18008
18009
18010
18011
18012
18017
18018
18022
18026
18032
18033
18038
18303
18316
18332
18339
18408
18411
18413
18424
18452
18473
18522
18550
18552
18558
18560
18566
18567
18593
18594
18618
18620
18632
18634
18641
18656
18661
18662
18668
18682
18704
18705
18706
18707
18709
18711
18713
18728
18730
18743
18745
18747
18751
18757
18843
18847
18852
18861
18936
19039
19047
19048
19081
19085
19090
19091
19092
19108
19124
19173
19174
19176
19220
19322
19324
19328
19357
19359
19366
19402
19408
19426
19431
19438
19450
19451
19584
19585
19619
19638
19656
19658
19661
19668
19670
19679
19680
19681
19682
19683
19688
19689
19782
19807
19847
19867
19898
20026
20031
20041
20059
20060
20062
20079
20089
20092
20182
20197
20199
20217
20222
20224
20227
20240
20247
20253
20254
20257
20268
20315
20752
20764
20767
20781
20786
20870
20890
20910
20924
20929
20945
20946
20947
20962
20979
21174
21490
21498
21499
21504
21828
21847
21849
21852
21861
22113
22155
22172
22184
22200
22221
22222
22246
22256
22258
22276
22350
22355
22367
22370
22377
22378
22387
22390
22392
22393
22394
22395
22396
22420
22427
22664
22666
22708
22727
22728
22730
22733
22734
22798
22857
22858
22883
22897
22969
23007
23009
23012
23033
23262
23471
23663
24188
24189
24197
24198
24269
24298
24307
24318
24358
24374
24375
24377
24386
24387
24388
24392
24407
24483
24487
24495
24506
24509
24513
24514
24541
24542
24649
24650
24737
24748
24751
24780
24791
24810
24814
24876
24898
24899
24902
25076
25348
25469
25472
25478
25506
25533
25542
25553
25554
25555
25578
25581
25584
25632
25638
25639
25641
25642
25644
25645
25646
25711
25714
25715
25716
25719
25732
25755
25780
25799
25802
26507
26549
26598
26600
26601
26602
26608
26611
26612
26614
26624
26641
26657
26660
26663
26664
26669
26676
26680
26682
26683
26697
26701
26703
26709
26721
26724
26725
26726
26741
26753
26755
26760
26762
26778
26781
26801
26804
26805
26943
26944
26947
26980
26982
26983
26984
26989
26994
26995
26997
27009
27024
27042
27044
27046
27063
27066
27099
27298
27299
27301
27302
27470
27479
27552
27553
27685
27686
27722
27723
27730
27739
27741
27742
27744
27778
27837
27838
27844
27847
27865
27867
27871
27874
27875
27890
27893
27907
27912
27918
27925
27929
27932
27943
27949
28345
28541
28668
29048
29081
29083
29089
29138
29140
29160
29167
29176
29299
29300
29339
29345
29347
29351
29404
29408
29416
29428
29433
29451
29452
29460
29490
29491
29515
29520
29524
29526
29553
29616
29622
29627
29659
29662
29669
29673
29674
29691
29692
29693
29703
29711
29722
29732
29738
29754
29759
29785
29792
29795
29796
29827
29838
29839
29853
29864
29866
29867
29911
29913
29919
29923
29939
30018
30052
30307
30342
30347
30355
30494
30531
30536
30555
30557
30577
30599
30600
31154
31155
31159
31345
41397
41888
41892
43185
44159
45136
45339
45514
45636
45688
45694
45705
45711
45715
45717
45718
45720
45721
45733
45735
45738
45744
45762
45764
45766
45770
45782
46771
46919
46942
46943
[ 235 ]
2823
2825
2827
2828
2829
2831
2867
2871
2891
2922
2926
2934
2936
2964
2972
2994
3017
3047
3052
3053
3054
3073
3074
3110
3126
3137
3142
3150
3151
3152
3232
3234
3240
3245
3246
3263
3265
3267
3272
3277
3310
3312
3324
3329
3352
3358
3368
3369
3374
3397
3406
3407
3417
3419
3421
3422
3444
3445
3446
3449
3454
3455
3635
3878
3880
3895
3903
3934
3952
3953
3955
3957
3960
3961
4011
4016
4019
4201
4943
4957
4959
5047
5049
5050
5081
5086
5101
5108
5140
5147
5148
5149
5151
5164
5170
5171
5181
5301
5325
5335
5357
6351
6353
6355
6418
6423
6428
6429
6520
6522
6525
6533
6534
6575
6585
6617
6618
6635
6650
6651
6654
6661
6668
6677
6682
6684
6685
6689
6691
6711
6720
6721
6733
6769
6781
6804
6805
6808
6809
6810
6815
6825
6826
6835
6838
6843
6844
6850
6872
6913
6914
6917
6921
6923
6925
6926
6929
6930
6936
6942
6943
6945
6950
6955
6958
6963
6964
6975
6977
6978
6987
6993
6994
6998
6999
7000
7003
7008
7009
7011
7013
7047
7049
7055
7056
7057
7069
7078
7079
7080
7081
7083
7087
7089
7091
7092
7093
7095
7096
7098
7108
7111
7116
7121
7123
7133
7136
7138
7141
7149
7152
7163
7164
7165
7167
7169
7205
7210
7214
7215
7217
7292
7300
7302
7306
7307
7308
7309
7311
7314
7318
7327
7376
7431
7433
7434
7435
7437
7447
7456
7498
7505
7513
7517
7522
7528
7535
7546
7548
7551
7554
7558
7559
7562
7568
7578
7581
7582
7583
7587
7594
7598
7600
7602
7603
7608
7613
7617
7626
7641
7643
7662
7663
7664
7697
7715
7716
7736
7743
7751
7772
7780
7796
7802
7804
7822
7826
7838
7839
7840
7848
7849
7851
7854
7868
7873
7879
7886
7887
7900
7902
7911
7922
7923
7924
7963
7964
7965
7966
7969
7975
7977
7983
7984
7993
7999
8022
8046
8047
8056
8057
8063
8067
8077
8083
8103
8115
8133
8141
8145
8151
8153
8159
8160
8165
8173
8174
8175
8179
8182
8184
8185
8186
8191
8257
8259
8260
8270
8272
8320
8321
8356
8381
8382
8385
8386
8387
8443
8527
8529
8618
8626
8630
8639
8641
8644
8648
8649
8650
8656
8658
8661
8692
9280
9295
9526
9527
9543
9546
9585
9588
9590
9591
9593
9597
9609
9674
9675
9693
9746
9749
10041
10044
10047
10476
10477
12681
12715
12716
12722
12723
12730
12750
12751
12760
12790
12837
12839
12934
13025
13047
13049
13050
13051
13056
13060
13067
13075
13079
13081
13082
13083
13085
13088
13089
13138
13148
13149
13150
13155
13163
13167
13169
13181
13226
13235
13241
13242
13245
13254
13258
13277
13278
13353
13460
13478
13481
13490
13506
13508
13510
13512
13513
13514
13515
13517
13520
13521
13523
13528
13530
13537
13542
13543
13544
13557
13559
13567
13575
13576
13583
13689
13690
13693
13695
13696
13697
13717
13718
13723
13724
13725
13738
13746
13754
13802
13834
13835
13836
13839
13900
13953
13967
13977
13991
13996
13998
14007
14009
14015
14027
14099
14158
14162
14365
14371
14419
14420
14427
14429
14431
14432
14435
14449
14457
14468
14469
14479
14493
14494
14496
14497
14500
14616
14618
14619
14698
14721
14722
14723
14746
14751
14753
14754
14759
14760
14768
14862
14863
14873
15059
15166
15196
15198
15200
15235
15352
15353
15359
15362
15364
15365
15366
15376
15381
15440
15501
15502
15507
15509
15511
15517
15518
15526
15536
15537
15538
15539
15545
15547
15550
15556
15557
15558
15575
15577
15581
15582
15632
15636
15641
15650
15692
15704
15743
15750
15751
15754
15755
15758
15762
15776
15808
15809
15828
15841
16149
16151
16152
16154
16160
16189
16205
16207
16215
16217
16237
16326
16330
16373
16410
16413
16414
16415
16418
16422
16457
16459
16501
16516
16558
16562
16563
16583
16584
16750
16766
16768
16885
16951
17136
17137
17144
17147
17160
17170
17178
17179
17182
17191
17212
17216
17247
17248
17249
17257
17260
17261
17262
17263
17410
17411
17413
17418
17420
17427
17441
17443
17445
17446
17448
17460
17464
17496
17497
17499
17500
17507
17510
17511
17513
17519
17521
17524
17535
17551
17618
17696
17699
17708
17731
17733
17742
17743
17758
17760
17763
17764
17774
17795
17806
17807
17808
17809
17816
17827
17858
17876
17914
17915
17920
17924
17967
18024
18028
18034
18039
18040
18041
18042
18045
18046
18048
18049
18054
18137
18148
18149
18192
18307
18308
18309
18326
18342
18343
18356
18363
18382
18389
18405
18410
18414
18415
18421
18422
18423
18449
18450
18451
18480
18483
18484
18485
18486
18499
18502
18503
18510
18533
18539
18549
18551
18556
18561
18563
18565
18571
18633
18636
18637
18639
18646
18648
18653
18654
18657
18670
18674
18676
18677
18678
18681
18683
18712
18717
18721
18722
18724
18729
18731
18742
18746
18749
18838
18851
18857
18935
18998
19028
19030
19080
19086
19093
19095
19097
19101
19103
19114
19120
19123
19221
19315
19318
19330
19333
19342
19368
19369
19371
19373
19387
19393
19405
19407
19413
19440
19448
19636
19637
19639
19649
19653
19657
19663
19665
19674
19685
19783
19786
19789
19814
19817
19831
19839
19857
20038
20065
20071
20082
20181
20184
20194
20201
20212
20219
20220
20221
20231
20234
20235
20248
20251
20256
20290
20291
20296
20310
20740
20755
20756
20758
20774
20791
20865
20869
20871
20872
20873
20878
20880
20909
20919
20923
20928
20930
20931
20932
20961
20964
20974
20975
20976
20992
20994
21853
21854
21856
21859
21860
21866
21869
21873
21879
21881
21891
21951
21952
22064
22203
22204
22227
22228
22229
22242
22244
22252
22283
22345
22348
22351
22354
22356
22371
22422
22423
22424
22425
22426
22428
22429
22606
22616
22645
22658
22661
22700
22701
22702
22724
22736
22753
22841
22843
22853
22854
22864
22893
22967
22971
22972
23015
23025
23026
23028
23039
23041
23042
23043
23052
23085
23253
23255
23272
23273
23282
23323
23459
23460
23463
23621
23636
23652
23657
23664
23760
23763
24146
24207
24241
24268
24287
24291
24293
24294
24295
24300
24308
24335
24349
24351
24389
24492
24504
24507
24515
24544
24548
24549
24560
24565
24660
24747
24749
24750
24757
24760
24778
24781
24782
25269
25270
25329
25345
25351
25412
25420
25446
25467
25468
25474
25475
25509
25527
25544
25550
25551
25556
25559
25575
25577
25588
25618
25620
25623
25634
25640
25649
25717
25723
25724
25728
25730
25731
25752
25754
25765
25766
25779
25795
25796
25807
25857
26009
26277
26357
26361
26362
26458
26506
26508
26591
26597
26604
26606
26607
26620
26643
26673
26685
26686
26691
26696
26702
26704
26705
26716
26717
26722
26731
26732
26738
26746
26750
26765
26766
26768
26772
26780
26786
26789
26799
26800
26806
26807
26809
26810
26920
26921
26936
26951
26954
26955
26956
26985
26987
26990
27018
27029
27048
27061
27062
27064
27065
27068
27088
27092
27097
27143
27283
27305
27306
27375
27386
27472
27482
27532
27533
27535
27548
27550
27551
27589
27590
27594
27597
27617
27618
27619
27663
27678
27679
27681
27693
27708
27709
27719
27721
27724
27726
27728
27729
27733
27743
27773
27774
27775
27777
27779
27810
27842
27843
27850
27851
27869
27870
27880
27884
27885
27897
27913
27916
27917
27919
27920
27922
27942
27948
28103
28107
28143
28279
28504
28527
28552
28563
28590
28680
28681
28683
28684
28686
28786
28828
28842
28852
29080
29082
29084
29088
29100
29101
29137
29142
29154
29155
29168
29169
29174
29177
29178
29187
29227
29247
29252
29266
29320
29323
29324
29349
29354
29355
29387
29407
29415
29417
29429
29437
29441
29442
29443
29456
29457
29458
29459
29461
29462
29465
29467
29469
29478
29501
29504
29505
29514
29516
29519
29522
29528
29534
29539
29548
29555
29614
29618
29621
29623
29628
29630
29653
29678
29683
29687
29700
29701
29702
29709
29731
29743
29746
29747
29765
29787
29788
29793
29808
29817
29820
29828
29856
29859
29865
29873
29898
29899
29903
29904
29906
29910
29915
30011
30017
30024
30049
30053
30068
30094
30099
30164
30167
30313
30318
30320
30322
30324
30325
30348
30361
30368
30374
30381
30385
30388
30472
30492
30493
30497
30537
30548
30553
30559
30585
30665
30667
31150
31156
31162
31346
31512
31515
31516
31633
31800
31803
31863
32210
32271
41400
41401
41402
41903
41904
41958
42340
43407
43850
43863
44145
44146
44341
44342
45090
45135
45351
45397
45398
45426
45586
45615
45635
45640
45649
45661
45664
45670
45674
45708
45732
45741
45754
45763
45768
45776
45783
45980
46157
46770
46914
46917
46928
46945
46979
46982
46983
48911
[ 236 ]
2833
2835
2852
2862
2863
2866
2883
2884
2902
2903
2904
2919
2920
2924
2955
2957
2958
2966
2975
2984
2986
3012
3014
3015
3019
3041
3045
3048
3055
3059
3060
3068
3069
3075
3099
3122
3138
3144
3146
3154
3206
3207
3208
3233
3258
3266
3271
3276
3286
3314
3317
3322
3323
3353
3360
3365
3366
3372
3375
3377
3392
3396
3414
3415
3426
3427
3428
3438
3439
3450
3460
3463
3670
3876
3956
3966
3967
4020
5059
5082
5084
5169
5182
6417
6422
6521
6526
6527
6528
6530
6535
6537
6542
6553
6555
6559
6616
6623
6629
6636
6638
6645
6647
6652
6656
6667
6669
6671
6673
6680
6686
6687
6690
6693
6694
6695
6698
6722
6726
6738
6740
6747
6759
6776
6778
6783
6784
6785
6803
6806
6813
6816
6823
6831
6833
6846
6847
6848
6849
6851
6852
6856
6873
6878
6889
6892
6895
6899
6911
6915
6918
6924
6938
6940
6941
6956
6960
6962
6969
7004
7006
7025
7027
7040
7044
7045
7060
7066
7070
7071
7072
7075
7085
7088
7094
7100
7103
7104
7105
7106
7109
7112
7115
7118
7137
7142
7146
7148
7154
7155
7156
7158
7168
7170
7171
7201
7202
7206
7209
7213
7218
7219
7289
7290
7291
7293
7294
7299
7301
7303
7305
7310
7317
7330
7333
7338
7340
7341
7342
7343
7351
7352
7361
7371
7392
7417
7422
7426
7432
7436
7438
7450
7453
7469
7495
7496
7501
7504
7516
7533
7536
7540
7547
7549
7560
7579
7585
7588
7589
7590
7597
7599
7610
7611
7620
7628
7630
7638
7640
7644
7650
7658
7661
7666
7667
7668
7669
7679
7683
7689
7700
7706
7713
7718
7719
7724
7737
7742
7768
7778
7783
7793
7806
7810
7815
7820
7821
7823
7842
7869
7870
7871
7872
7877
7878
7933
7959
7981
8000
8001
8010
8011
8014
8015
8023
8031
8035
8051
8064
8066
8068
8071
8085
8086
8087
8092
8097
8098
8099
8107
8114
8126
8132
8134
8142
8146
8147
8148
8149
8150
8157
8169
8170
8171
8172
8241
8248
8271
8292
8324
8342
8343
8344
8349
8357
8375
8388
8428
8429
8477
8478
8483
8508
8509
8510
8511
8518
8533
8534
8555
8556
8564
8566
8569
8579
8581
8582
8615
8631
8634
8640
8643
8646
8647
8651
8652
8655
8657
9294
9296
9297
9304
9379
9382
9544
12695
12733
12734
12737
12740
12741
12749
12757
12813
12817
12825
12826
12830
12833
12834
12841
12843
12870
13027
13030
13033
13054
13055
13057
13066
13076
13084
13170
13182
13185
13212
13214
13217
13218
13227
13505
13524
13527
13529
13531
13533
13539
13545
13555
13556
13564
13565
13569
13584
13585
13587
13592
13604
13639
13640
13649
13661
13662
13665
13686
13687
13688
13710
13719
13720
13721
13722
13726
13727
13728
13729
13742
13748
13750
13807
13809
13810
13914
13951
13952
13954
13971
13973
13974
13975
13982
14008
14011
14028
14161
14379
14380
14404
14433
14462
14480
14481
14488
14491
14621
14626
14627
14639
14699
14725
14726
14743
14752
14865
14868
15010
15036
15168
15180
15181
15191
15197
15201
15204
15206
15214
15223
15224
15229
15232
15356
15357
15375
15378
15442
15449
15477
15484
15498
15510
15520
15528
15546
15551
15552
15553
15561
15562
15563
15565
15568
15584
15626
15629
15630
15642
15648
15652
15669
15671
15672
15675
15684
15686
15712
15745
15747
15748
15749
15752
15756
15757
15768
15772
15774
15775
15783
15789
15800
15802
15803
15811
15826
15842
15884
15887
15896
16153
16155
16156
16159
16161
16214
16231
16232
16239
16245
16248
16249
16253
16277
16287
16320
16324
16325
16331
16363
16403
16406
16425
16426
16428
16432
16437
16438
16439
16440
16455
16456
16494
16498
16513
16549
16554
16577
16579
16677
16678
16680
16682
16683
16684
16685
16700
16710
16720
16727
16729
16730
16733
16735
16759
16761
17130
17132
17148
17158
17167
17210
17220
17222
17229
17412
17415
17417
17421
17422
17423
17426
17471
17476
17506
17508
17517
17518
17522
17526
17531
17534
17537
17538
17550
17559
17710
17717
17718
17721
17737
17754
17757
17761
17765
17772
17802
17804
17805
17810
17812
17916
17958
17959
17961
17962
18036
18044
18050
18053
18140
18141
18142
18143
18144
18310
18327
18340
18341
18357
18358
18365
18399
18401
18402
18404
18406
18407
18409
18418
18419
18420
18426
18446
18481
18487
18488
18489
18493
18501
18537
18543
18544
18545
18546
18547
18568
18582
18584
18597
18611
18616
18635
18640
18645
18647
18649
18671
18679
18680
18703
18715
18741
18800
19034
19050
19060
19074
19078
19088
19094
19104
19219
19370
19372
19378
19384
19389
19390
19392
19421
19434
19436
19457
19634
19640
19659
19684
19784
19798
19803
19805
19810
19830
19832
19854
20040
20063
20064
20179
20188
20191
20192
20195
20196
20207
20209
20211
20229
20230
20299
20301
20303
20754
20760
20761
20762
20788
20790
20792
20800
20804
20856
20857
20860
20877
20881
20956
20958
20959
20973
20980
20993
21858
21864
21871
21872
21875
21885
21898
21907
21913
22066
22069
22175
22187
22201
22209
22234
22235
22238
22239
22241
22251
22349
22430
22634
22638
22644
22646
22650
22656
22659
22663
22699
22703
22750
22754
22806
22808
22821
22822
22839
22852
22902
22904
22906
22914
22962
22963
22978
22989
22990
22991
22995
23003
23010
23024
23029
23036
23037
23040
23044
23045
23047
23050
23053
23057
23450
23453
23456
23588
23612
23665
23670
23671
23719
23724
23755
23757
23758
23764
23766
23767
23769
23775
23778
23790
23822
23858
23955
23961
23975
24008
24098
24099
24106
24107
24108
24126
24147
24187
24202
24206
24208
24211
24253
24255
24256
24260
24266
24267
24271
24285
24286
24324
24327
24333
24338
24340
24346
24348
24352
24362
24363
24370
24373
24494
24545
24547
24559
24569
24796
25273
25279
25283
25294
25295
25316
25328
25330
25331
25341
25342
25354
25357
25401
25411
25421
25424
25425
25431
25434
25437
25448
25503
25528
25529
25530
25538
25543
25562
25563
25591
25617
25621
25690
25692
25694
25725
25726
25729
25735
25748
25749
25751
25756
25761
25762
25769
25777
25785
25787
25798
25800
25824
25828
25845
25854
25855
25856
25858
25859
25860
25880
25929
25934
25965
25988
26164
26276
26281
26355
26363
26371
26437
26457
26462
26465
26466
26469
26533
26550
26580
26582
26590
26595
26596
26610
26613
26621
26622
26635
26639
26659
26666
26672
26692
26694
26700
26706
26707
26710
26719
26733
26736
26745
26749
26767
26769
26770
26771
26773
26774
26779
26783
26787
26790
26793
26795
26796
26814
26922
26925
26926
26928
26934
26937
26939
26986
27023
27035
27045
27050
27053
27055
27056
27084
27109
27126
27133
27139
27141
27142
27167
27170
27243
27284
27293
27327
27377
27379
27381
27383
27385
27403
27436
27437
27438
27441
27455
27473
27480
27481
27531
27536
27541
27554
27580
27583
27595
27600
27601
27602
27603
27607
27608
27609
27610
27613
27636
27649
27665
27674
27677
27688
27689
27690
27698
27703
27705
27716
27731
27745
27767
27771
27776
27782
27783
27784
27785
27807
27830
27849
27855
27856
27861
27863
27881
27921
27933
27950
27955
28053
28057
28101
28105
28133
28134
28141
28142
28144
28153
28154
28219
28237
28266
28268
28269
28278
28284
28304
28307
28311
28313
28348
28461
28465
28501
28508
28509
28511
28514
28525
28526
28548
28551
28553
28554
28559
28588
28591
28631
28669
28670
28685
28687
28698
28705
28821
28825
28830
28838
28854
28856
28860
28861
28862
28866
28869
29086
29090
29091
29103
29106
29109
29147
29148
29153
29156
29171
29172
29173
29181
29183
29218
29228
29229
29235
29236
29238
29248
29258
29346
29350
29353
29393
29414
29448
29466
29472
29535
29542
29545
29550
29556
29563
29564
29565
29566
29601
29660
29677
29681
29682
29713
29715
29728
29764
29768
29776
29777
29780
29783
29797
29809
29810
29811
29836
29857
29869
29874
29905
29909
29912
29924
29934
29936
29937
29940
29961
30036
30039
30048
30050
30062
30075
30097
30117
30163
30168
30219
30221
30222
30240
30311
30317
30319
30349
30358
30359
30364
30367
30370
30373
30382
30386
30409
30461
30463
30464
30473
30474
30519
30526
30528
30546
30547
30551
30560
30564
30583
30596
30601
30660
30663
30671
31095
31140
31141
31145
31148
31149
31173
31259
31347
31398
31437
31517
31550
31552
31560
31561
31581
31587
31590
31629
31632
31664
31798
31799
31801
31802
31857
31859
31864
31929
31930
32207
32217
32272
32340
32343
32402
32409
32414
32415
32449
32579
34965
34966
35541
35681
35688
35693
35709
35793
35812
38967
39029
39042
39147
39169
41403
41883
41899
41902
41911
41914
41917
41939
41977
42081
42338
42339
42347
43179
43183
43184
43186
43353
43364
43408
43410
43412
43416
43640
43642
43646
43864
43873
43875
43879
43913
43980
43987
43995
44165
44396
44603
45061
45089
45117
45118
45119
45127
45138
45352
45356
45368
45391
45392
45399
45414
45419
45437
45461
45508
45513
45515
45582
45585
45594
45648
45655
45657
45675
45731
45749
45752
45765
45866
45879
45882
45963
45979
45986
46029
46245
46254
46256
46261
46313
46318
46355
46358
46369
46542
46796
46906
46909
46920
46935
46944
46946
46959
46974
47608
48913
48935
[ 237 ]
2858
2860
2864
2890
2893
2908
2912
2918
2974
2976
2977
2982
3011
3020
3021
3031
3058
3061
3070
3076
3096
3113
3114
3117
3118
3119
3123
3124
3125
3128
3129
3131
3145
3148
3160
3176
3183
3201
3285
3287
3293
3299
3308
3313
3321
3373
3383
3391
3432
3443
5051
5191
6346
6538
6539
6540
6541
6544
6549
6552
6554
6558
6560
6598
6620
6622
6626
6639
6643
6644
6646
6658
6660
6662
6679
6696
6699
6702
6704
6706
6709
6710
6715
6723
6735
6746
6751
6752
6753
6772
6786
6799
6802
6817
6819
6841
6861
6862
6871
6896
6897
6900
6910
6934
6935
6939
7024
7038
7039
7046
7052
7053
7054
7058
7062
7064
7065
7074
7076
7077
7084
7097
7099
7102
7159
7161
7162
7172
7173
7188
7189
7190
7197
7199
7204
7208
7211
7212
7261
7267
7283
7288
7297
7304
7331
7334
7344
7350
7353
7356
7363
7375
7380
7390
7391
7395
7400
7409
7412
7421
7452
7460
7462
7463
7466
7474
7489
7491
7493
7494
7502
7503
7534
7621
7624
7629
7632
7633
7636
7637
7639
7660
7675
7678
7680
7684
7698
7702
7703
7705
7707
7710
7712
7739
7740
7767
7770
7801
7950
7953
7982
8003
8004
8006
8007
8020
8024
8036
8044
8088
8089
8090
8091
8093
8094
8109
8156
8258
8291
8341
8346
8347
8358
8379
8389
8390
8441
8449
8450
8453
8454
8455
8465
8474
8475
8476
8482
8490
8491
8499
8512
8519
8547
8550
8551
8568
8573
8585
8632
9298
9300
9305
9307
9672
9673
9683
12736
12739
12742
12748
12823
12832
12871
12874
13032
13034
13053
13175
13176
13177
13178
13180
13213
13219
13231
13549
13552
13603
13612
13616
13620
13625
13632
13655
13656
13684
13737
13740
13741
13747
13749
13911
13913
13979
14014
14466
14467
14490
14732
14733
14734
14735
14742
14769
15158
15184
15186
15190
15199
15202
15212
15368
15496
15522
15540
15541
15560
15564
15580
15646
15647
15656
15657
15667
15668
15784
15801
15893
15895
16146
16227
16233
16234
16242
16244
16278
16284
16288
16321
16362
16372
16382
16404
16405
16407
16419
16433
16435
16447
16454
16463
16511
16512
16532
16534
16557
16578
16581
16582
16586
16675
16676
16688
16689
16701
16703
16713
16715
16716
16717
16718
16728
16732
17070
17150
17169
17217
17416
17433
17474
17475
17514
17515
17516
17527
17529
17541
17712
17713
17715
17719
17748
17749
17750
17751
17752
17753
17766
17770
17771
17813
17814
17866
17867
17873
18321
18362
18364
18366
18367
18369
18383
18384
18388
18393
18394
18395
18507
18534
18579
18583
18607
18733
18735
18802
19032
19033
19061
19062
19071
19076
19077
19313
19374
19376
19386
19435
19441
19444
19447
19458
19459
19633
19651
19664
19791
19792
19793
19794
19795
19797
19804
19834
20205
20208
20214
20215
20216
20250
20292
20294
20297
20298
20759
20789
20794
20806
20851
20853
20858
20874
20876
20954
20998
20999
21002
21874
21893
21896
21897
21902
21904
21906
21908
21912
21914
21915
22035
22068
22212
22230
22236
22237
22240
22343
22600
22602
22617
22618
22619
22632
22643
22651
22657
22662
22752
22756
22767
22788
22792
22793
22794
22804
22811
22815
22830
22840
22845
22905
22912
22961
22975
22981
22986
22987
22994
23001
23027
23035
23046
23049
23056
23071
23073
23075
23083
23084
23270
23574
23587
23637
23666
23667
23669
23672
23674
23676
23682
23698
23740
23749
23768
23770
23771
23774
23777
23794
23796
23842
23854
23862
23864
23865
23926
23943
23947
23949
23952
23954
23960
23964
23970
23972
23974
23978
23981
24006
24007
24009
24015
24016
24070
24079
24080
24086
24090
24093
24103
24143
24186
24212
24223
24240
24257
24258
24264
24283
24310
24325
24343
24357
24359
24364
24516
24517
24518
24561
24562
24564
24789
25124
25266
25276
25280
25285
25286
25288
25301
25308
25309
25310
25319
25322
25323
25326
25327
25332
25333
25340
25343
25352
25355
25361
25365
25369
25370
25373
25374
25375
25377
25390
25391
25393
25394
25408
25409
25413
25414
25416
25417
25426
25429
25430
25432
25433
25435
25436
25462
25464
25483
25498
25508
25522
25526
25535
25536
25539
25540
25557
25565
25566
25568
25571
25573
25574
25590
25593
25595
25607
25610
25626
25628
25636
25651
25658
25662
25672
25675
25686
25693
25709
25736
25737
25738
25741
25747
25768
25771
25773
25774
25805
25806
25822
25823
25826
25829
25836
25846
25851
25852
25879
25881
25904
25952
25955
25982
25983
25987
26001
26033
26035
26158
26160
26166
26215
26216
26280
26307
26309
26310
26338
26348
26353
26376
26377
26380
26384
26434
26438
26440
26459
26460
26463
26470
26512
26527
26528
26532
26538
26539
26544
26555
26559
26579
26581
26585
26587
26589
26592
26615
26617
26618
26619
26638
26693
26714
26734
26777
26788
26791
26792
26811
26812
26813
26817
26818
26835
26843
26868
26881
26905
26906
26918
26919
26924
26931
26932
26938
26991
27054
27069
27074
27086
27125
27127
27132
27176
27177
27178
27180
27181
27241
27242
27253
27273
27274
27281
27289
27313
27323
27324
27337
27354
27356
27362
27384
27388
27402
27404
27434
27484
27485
27487
27555
27556
27578
27579
27581
27584
27586
27588
27591
27599
27615
27623
27625
27626
27628
27631
27633
27634
27638
27639
27659
27673
27675
27707
27750
27754
27755
27766
27788
27790
27796
27797
27798
27822
27823
27824
27827
27848
27923
27951
27957
27960
27967
27968
27973
28012
28056
28059
28065
28068
28100
28104
28112
28121
28140
28145
28150
28151
28155
28156
28161
28177
28178
28179
28199
28203
28209
28210
28216
28221
28254
28255
28260
28265
28267
28271
28276
28277
28280
28289
28297
28298
28299
28310
28351
28391
28413
28431
28432
28440
28497
28500
28545
28557
28572
28629
28682
28697
28701
28717
28719
28818
28824
28826
28829
28834
28835
28836
28845
28857
28878
28886
28982
29033
29036
29042
29044
29045
29157
29220
29232
29243
29285
29288
29396
29445
29474
29477
29560
29570
29584
29593
29603
29631
29657
29658
29680
29729
29775
29778
29779
29887
29916
29930
29931
29935
29956
29959
29978
30055
30056
30057
30064
30093
30106
30121
30123
30130
30132
30133
30175
30213
30218
30220
30224
30292
30295
30353
30356
30357
30408
30413
30415
30467
30475
30476
30477
30496
30506
30516
30522
30541
30558
30561
30562
30603
30658
30662
30664
30670
30672
30676
31059
31133
31163
31172
31258
31344
31349
31367
31396
31397
31399
31432
31443
31444
31481
31503
31506
31507
31511
31513
31551
31558
31563
31577
31584
31589
31628
31631
31650
31652
31653
31657
31660
31667
31668
31669
31673
31680
31690
31797
31804
31849
31850
31851
31852
31855
31856
31866
31868
31933
31943
32204
32208
32211
32212
32215
32283
32305
32306
32335
32337
32403
32404
32405
32406
32407
32418
32450
32562
32959
32961
33069
33120
33377
33424
33439
33536
34964
35062
35160
35547
35558
35687
35689
35690
35790
35810
37551
38584
38899
38904
38910
38969
39001
39004
39028
39030
39124
39159
39197
39198
40378
41168
41865
41886
41900
41901
41908
41909
41910
41913
41915
41918
41921
41922
41924
41925
41940
41941
41967
41971
41978
41979
42019
42047
42056
42343
42348
43187
43189
43190
43191
43194
43195
43229
43233
43352
43375
43406
43414
43417
43460
43478
43481
43483
43484
43485
43493
43512
43562
43609
43612
43632
43633
43644
43685
43869
43874
43884
43979
43986
43991
44119
44144
44223
44299
44302
44338
44351
44352
44399
44602
44604
44666
44667
44674
44957
45043
45048
45050
45079
45085
45105
45106
45134
45141
45421
45465
45499
45507
45511
45517
45520
45521
45523
45525
45526
45528
45530
45552
45583
45584
45619
45634
45653
45656
45658
45669
45684
45786
45796
45877
45878
45883
45951
45955
45978
45982
46005
46024
46030
46138
46227
46240
46244
46314
46316
46319
46320
46540
46541
46545
46680
46769
46774
46787
46797
46878
46911
46912
46933
46934
46940
46955
46958
46969
46971
46972
46973
47635
47992
48187
48192
48528
48556
49098
49920
[ 238 ]
2887
2889
2892
2895
2897
2900
2906
2907
2909
2911
3010
3051
3062
3063
3064
3065
3071
3086
3088
3094
3095
3105
3109
3111
3116
3120
3121
3135
3273
3274
3292
3295
3307
3309
3315
3318
3319
3364
3376
3378
3381
3382
3384
3388
3389
3390
3433
6543
6557
6562
6604
6624
6625
6627
6642
6657
6705
6736
6742
6743
6744
6745
6748
6788
6789
6790
6794
6798
6800
6801
6811
6812
6854
6855
6858
6864
6868
6891
6898
6901
6902
6908
7028
7035
7037
7051
7059
7063
7143
7145
7147
7160
7174
7175
7176
7185
7191
7192
7193
7196
7220
7239
7248
7252
7253
7254
7259
7262
7264
7265
7270
7280
7281
7285
7296
7298
7329
7337
7349
7358
7364
7369
7386
7387
7388
7389
7393
7398
7406
7410
7415
7465
7482
7487
7488
7492
7622
7623
7634
7676
7677
7701
8026
8100
8104
8105
8106
8110
8448
8451
8456
8459
8466
8484
8485
8488
8492
8493
8497
8503
8505
8517
8535
8548
8563
8572
8577
8578
8584
8587
8608
8614
12735
13216
13554
13596
13599
13621
13628
13630
13631
13635
13648
13658
14729
14730
14736
14855
15160
15187
15188
15215
15216
15218
15228
15231
15525
15659
15746
16241
16252
16255
16256
16268
16272
16281
16283
16285
16322
16365
16366
16367
16368
16369
16375
16376
16378
16380
16385
16441
16572
16580
16673
16692
16709
16711
16712
16889
17151
17530
17532
17768
17861
17864
17869
18347
18348
18374
18376
18386
18387
18391
18396
18601
18605
18609
18614
18734
18736
19016
19017
19019
19020
19063
19070
19073
19380
19383
19411
19442
19644
19646
19822
19828
20306
20742
20799
20811
20822
20826
20854
20955
21830
21831
21889
21894
21895
21899
21901
22440
22640
22652
22757
22765
22766
22782
22783
22787
22812
22819
22829
22831
22846
22913
22979
22982
22985
23020
23060
23067
23070
23076
23077
23081
23191
23267
23477
23563
23594
23595
23596
23606
23609
23633
23673
23681
23696
23697
23732
23733
23744
23750
23753
23772
23776
23785
23787
23799
23857
23895
23896
23899
23944
23948
23951
23959
23962
23973
23976
23977
23980
23984
23986
23987
24005
24041
24043
24045
24057
24076
24084
24092
24094
24110
24149
24185
24214
24222
24224
24232
24239
24259
24563
24721
25036
25121
25154
25188
25260
25261
25267
25274
25287
25305
25311
25313
25314
25315
25317
25321
25335
25356
25359
25367
25371
25382
25384
25385
25406
25410
25415
25438
25439
25443
25466
25482
25519
25523
25524
25525
25567
25572
25594
25596
25599
25602
25603
25606
25611
25625
25630
25652
25656
25688
25689
25691
25695
25742
25776
25783
25830
25837
25838
25841
25842
25848
25849
25861
25866
25871
25872
25882
25884
25930
25932
25933
25945
25946
25947
25953
25957
25958
25962
25963
25964
25973
25977
25981
25994
26015
26056
26153
26159
26161
26163
26167
26177
26217
26222
26256
26271
26272
26312
26337
26366
26410
26413
26421
26429
26439
26455
26467
26471
26474
26475
26476
26487
26513
26523
26524
26552
26554
26571
26574
26575
26577
26578
26616
26775
26815
26822
26849
26857
26869
26883
26903
26904
26907
26909
26929
26930
27120
27121
27122
27124
27140
27145
27146
27153
27159
27166
27168
27169
27172
27179
27182
27231
27232
27255
27266
27278
27282
27285
27287
27290
27292
27308
27309
27316
27318
27325
27326
27328
27361
27363
27365
27370
27371
27410
27414
27423
27425
27428
27429
27435
27439
27442
27488
27516
27518
27545
27560
27569
27571
27574
27585
27592
27611
27632
27635
27637
27652
27658
27662
27669
27670
27672
27704
27749
27757
27787
27791
27801
27859
27860
27952
27954
27956
27962
27969
27971
27972
27974
27975
27976
27989
28000
28020
28021
28026
28027
28028
28033
28043
28058
28062
28069
28096
28099
28109
28111
28117
28119
28127
28128
28146
28147
28157
28163
28176
28183
28188
28189
28190
28204
28208
28213
28214
28223
28256
28261
28262
28275
28283
28285
28288
28295
28296
28308
28309
28315
28326
28336
28343
28346
28350
28352
28365
28366
28369
28370
28388
28414
28430
28437
28439
28441
28447
28454
28487
28492
28544
28549
28574
28577
28624
28625
28633
28703
28711
28713
28715
28822
28833
28880
28881
28882
28892
28896
28901
28953
29027
29034
29037
29043
29123
29149
29239
29246
29475
29580
29582
29600
29632
29656
29782
29802
29886
29971
30013
30045
30058
30078
30087
30092
30095
30096
30119
30147
30157
30193
30199
30202
30205
30245
30265
30287
30411
30414
30470
30479
30481
30490
30509
30510
30520
30543
30582
30586
30587
30588
30590
30595
30598
30604
30613
30614
30617
30619
30674
30675
30679
30682
30686
31100
31137
31139
31170
31260
31261
31263
31264
31274
31341
31352
31353
31406
31407
31425
31427
31429
31434
31447
31452
31455
31478
31482
31483
31493
31494
31495
31496
31500
31504
31509
31510
31523
31531
31535
31559
31623
31624
31640
31646
31654
31658
31661
31662
31663
31665
31666
31677
31678
31681
31682
31694
31750
31755
31795
31805
31806
31844
31853
31858
31860
31862
31869
31875
31881
31891
31932
31938
31956
31965
31972
31978
32213
32216
32230
32251
32269
32270
32280
32285
32286
32292
32294
32295
32296
32297
32298
32301
32303
32308
32327
32333
32338
32352
32357
32371
32396
32397
32416
32419
32445
32452
32474
32493
32507
32517
32624
32761
32929
32931
32948
32954
32962
33015
33026
33067
33070
33071
33128
33147
33154
33173
33175
33290
33329
33378
33437
33444
33505
33506
33507
33517
33537
33539
33540
33544
33587
33703
33706
33709
34957
35150
35161
35287
35461
35511
35549
35556
35561
35567
35576
35581
35585
35670
35682
35684
35698
35699
35700
35705
35706
35711
35727
35732
35785
35791
38443
38556
38876
38893
38894
38898
38900
38901
38905
38912
38963
38966
38975
39022
39027
39031
39043
39145
39152
39168
39170
39172
39190
39195
40337
41160
41165
41166
41178
41179
41424
41450
41866
41867
41877
41880
41884
41885
41919
41923
41928
41934
41937
41943
41947
41951
41952
41953
41954
41959
41965
41968
41981
41984
42025
42045
42052
42114
42121
43175
43193
43201
43234
43317
43354
43357
43363
43371
43376
43398
43418
43443
43456
43457
43465
43469
43519
43535
43536
43543
43591
43635
43641
43672
43687
43769
43771
43844
43867
43877
43878
43883
43911
43983
43996
44109
44121
44125
44148
44150
44157
44158
44192
44209
44307
44312
44321
44336
44339
44354
44355
44379
44389
44391
44392
44393
44398
44467
44599
44659
44664
44668
44755
44828
44829
44831
44841
44932
44961
45036
45045
45052
45060
45067
45069
45099
45102
45104
45107
45113
45365
45366
45440
45451
45479
45486
45498
45506
45524
45531
45533
45567
45570
45573
45620
45628
45629
45642
45643
45646
45650
45948
45958
46000
46004
46022
46023
46027
46058
46106
46108
46122
46127
46137
46145
46148
46154
46193
46194
46212
46215
46222
46225
46231
46243
46248
46250
46258
46259
46359
46376
46588
46605
46674
46682
46768
46773
46776
46785
46802
46804
46902
46947
46956
46957
47588
47630
47631
47648
47737
47976
47989
47994
47999
48074
48077
48125
48130
48419
48429
48430
48526
48544
48579
48580
48812
48923
48934
48936
49093
49100
49760
49762
49782
49820
49965
[ 239 ]
2865
2888
2896
2910
3050
3066
3093
3130
3133
3134
3164
3165
3301
3302
3304
3385
3386
3435
6545
6546
6600
6603
6614
6792
6793
7177
7222
7224
7242
7245
7255
7256
7258
7268
7271
7273
7274
7275
7277
7282
7287
7345
7359
7366
7384
7401
7405
7407
7408
7483
7485
7486
7490
8108
8112
8457
8458
8479
8480
8498
8515
8537
8538
8541
8542
8543
8544
8549
8589
8606
8610
8612
12743
13550
13551
13629
13638
13657
14731
14853
14854
14856
15585
15586
15661
15666
15770
15771
16260
16261
16264
16267
16269
16280
16364
16371
16379
16386
16575
16663
16665
16666
16668
16670
16671
16672
16691
16693
17872
18346
18350
18604
18738
18739
19022
19023
19064
19072
19827
20812
20824
20828
20835
21900
22067
22622
22625
22626
22629
22631
22641
22758
22759
22763
22764
22769
22772
22776
22777
22778
22785
22813
22814
22824
22832
22833
22835
22837
23066
23068
23080
23195
23264
23358
23360
23363
23482
23565
23607
23675
23701
23751
23773
23786
23898
23906
23969
23979
23985
23989
24001
24013
24014
24023
24024
24026
24027
24030
24039
24046
24058
24062
24231
24233
24234
25151
25336
25338
25380
25381
25397
25399
25400
25441
25442
25459
25597
25600
25601
25604
25605
25615
25674
25679
25683
25684
25697
25701
25707
25840
25847
25870
25873
25876
25877
25883
25885
25886
25911
25913
25954
25967
25979
26017
26028
26050
26055
26138
26146
26147
26151
26180
26181
26182
26192
26200
26206
26220
26221
26269
26270
26291
26292
26321
26329
26350
26368
26414
26420
26441
26443
26445
26446
26448
26449
26450
26454
26477
26482
26485
26486
26488
26491
26495
26496
26514
26518
26525
26557
26563
26564
26570
26572
26711
26712
26819
26862
26863
26865
26880
26882
26884
26900
26908
26910
26911
26933
27119
27150
27151
27157
27160
27173
27183
27191
27201
27210
27213
27214
27216
27217
27230
27233
27234
27239
27244
27252
27277
27280
27286
27288
27311
27317
27319
27332
27364
27366
27369
27401
27419
27422
27424
27430
27462
27463
27464
27490
27494
27495
27497
27528
27529
27563
27564
27566
27567
27568
27576
27577
27630
27643
27647
27648
27661
27666
27667
27668
27752
27805
27953
27961
27970
27977
27988
27992
27993
27994
27997
27998
27999
28002
28003
28005
28006
28007
28019
28023
28035
28041
28045
28048
28086
28095
28108
28113
28148
28158
28167
28169
28171
28172
28206
28215
28217
28222
28225
28263
28273
28291
28292
28293
28316
28317
28324
28325
28328
28335
28358
28371
28387
28389
28390
28418
28420
28422
28426
28428
28429
28433
28436
28442
28448
28453
28470
28471
28480
28486
28488
28490
28576
28671
28672
28673
28675
28708
28902
28911
28912
28917
28928
28940
28941
29041
29152
29203
29207
29294
29296
29473
29572
29579
29947
30014
30043
30191
30203
30237
30280
30281
30489
30499
30505
30514
30597
30605
30611
30615
30616
30618
30624
30632
30641
30646
30652
30655
30680
30683
30687
30692
30701
31097
31098
31116
31122
31132
31189
31228
31231
31243
31262
31268
31269
31270
31271
31273
31285
31286
31289
31291
31322
31323
31324
31325
31327
31335
31337
31340
31365
31371
31372
31375
31376
31387
31395
31400
31404
31408
31416
31421
31431
31433
31435
31442
31451
31453
31454
31457
31460
31463
31472
31480
31485
31490
31505
31525
31533
31534
31536
31539
31544
31545
31636
31637
31639
31641
31643
31671
31684
31685
31688
31742
31756
31780
31783
31789
31791
31826
31833
31843
31846
31847
31861
31870
31882
31883
31905
31907
31908
31910
31914
31915
31920
31946
31947
31948
31955
31962
31966
31970
31973
31974
31982
32099
32100
32102
32105
32206
32218
32232
32238
32240
32264
32267
32268
32273
32275
32287
32290
32291
32309
32316
32317
32318
32319
32321
32346
32351
32358
32360
32361
32362
32364
32368
32373
32444
32480
32497
32549
32920
32928
33014
33017
33021
33023
33027
33028
33060
33085
33086
33087
33091
33099
33146
33149
33155
33176
33177
33197
33213
33215
33217
33223
33237
33259
33266
33269
33270
33289
33291
33325
33326
33330
33336
33338
33358
33361
33380
33393
33431
33451
33455
33472
33528
33538
33566
33584
33588
33702
33707
33711
35020
35147
35149
35159
35172
35289
35362
35396
35453
35472
35473
35477
35481
35483
35485
35502
35554
35562
35566
35573
35574
35579
35580
35702
35740
35747
35748
35775
35787
35789
35808
35809
35814
35852
35866
37449
37450
37457
37552
37553
37556
37581
37691
38024
38234
38235
38245
38248
38249
38762
38766
38770
38896
38909
38955
38957
38961
38968
39003
39024
39044
39093
39121
39122
39125
39126
39127
39148
39151
39175
39189
39191
39194
39209
39219
39268
39390
39808
39809
39810
39819
39998
40201
40209
40211
40262
40362
40367
41095
41164
41173
41174
41175
41176
41353
41412
41413
41452
41599
41863
41869
41931
41933
41960
41962
41969
41983
42036
42043
42044
42051
42053
42055
42057
42064
43177
43178
43192
43269
43270
43280
43281
43316
43319
43322
43324
43326
43341
43347
43348
43349
43355
43367
43372
43397
43402
43420
43432
43437
43448
43449
43462
43463
43470
43472
43475
43476
43477
43487
43516
43520
43538
43539
43540
43584
43667
43668
43670
43759
43760
43828
43839
43840
43892
43897
43903
43906
43914
43916
43920
43921
43922
43929
43930
43938
43967
43982
44006
44038
44077
44083
44107
44108
44116
44139
44140
44151
44156
44175
44179
44189
44193
44197
44198
44201
44213
44221
44259
44300
44304
44305
44314
44331
44334
44367
44383
44390
44394
44402
44404
44410
44412
44414
44415
44416
44418
44423
44432
44438
44458
44563
44569
44591
44598
44600
44605
44606
44609
44644
44661
44662
44665
44676
44688
44695
44708
44715
44716
44721
44732
44738
44743
44836
44843
44844
44921
44964
44977
44985
45025
45039
45044
45054
45068
45072
45095
45146
45364
45441
45478
45483
45484
45485
45495
45504
45527
45555
45556
45578
45622
45623
45625
45645
45804
45812
45957
45987
45990
45992
45997
45998
46003
46018
46020
46021
46026
46039
46050
46052
46053
46059
46062
46079
46081
46088
46091
46092
46104
46107
46113
46132
46135
46139
46153
46155
46182
46183
46195
46209
46214
46251
46360
46454
46571
46585
46586
46587
46590
46596
46601
46684
46727
46756
46762
46780
46786
46788
46789
46792
46830
46876
46898
46899
46901
46961
46964
47523
47527
47566
47578
47592
47611
47619
47627
47633
47638
47639
47694
47766
47850
47868
47891
47895
47900
47906
47917
47926
47928
47948
47955
47978
47980
47984
47991
48076
48079
48123
48135
48136
48185
48190
48191
48233
48299
48340
48350
48351
48355
48377
48382
48399
48400
48411
48415
48418
48425
48522
48523
48536
48539
48581
48589
48655
48700
48712
48811
48813
49073
49094
49146
49200
49202
49707
49744
49763
49773
49774
49822
49823
49826
49904
49905
49915
49918
49919
49922
49925
49966
49977
49980
49981
[ 240 ]
3000
3089
3303
6860
7179
7194
7243
7250
7272
7346
7385
8516
8539
8540
8592
8601
15662
15663
16442
16664
18370
22760
22771
22773
22779
22826
22836
23062
23063
23490
23722
23904
23905
23966
23998
24004
24012
24022
24025
24028
24067
24167
24235
24236
24238
25037
25460
25613
25614
25678
25680
25685
25698
25699
25839
25867
25868
25869
25874
25875
25941
26024
26027
26102
26108
26113
26132
26141
26148
26150
26194
26195
26196
26201
26203
26204
26213
26214
26218
26235
26251
26262
26299
26322
26325
26328
26332
26334
26394
26399
26447
26452
26479
26481
26484
26490
26493
26515
26519
26820
26821
26826
26827
26830
26831
26859
26860
26872
26875
26876
26877
26887
26899
26917
27148
27158
27186
27198
27228
27240
27257
27258
27259
27260
27262
27265
27267
27268
27269
27271
27275
27333
27416
27417
27418
27426
27492
27500
27507
27510
27517
27565
27646
27763
27764
27987
27995
28004
28022
28025
28029
28031
28034
28037
28038
28040
28049
28116
28124
28166
28174
28211
28226
28290
28338
28340
28353
28355
28359
28361
28362
28372
28379
28386
28392
28394
28396
28406
28410
28415
28416
28475
28493
28894
28910
28916
28918
28920
28943
28948
28979
29196
29199
29200
29204
29591
29592
30279
30480
30488
30500
30609
30610
30612
30620
30625
30626
30643
30645
30684
30685
30691
30693
30696
30697
30705
31123
31125
31126
31127
31131
31187
31188
31190
31193
31194
31196
31207
31221
31266
31292
31313
31320
31331
31332
31357
31359
31361
31362
31378
31379
31382
31385
31386
31390
31392
31393
31405
31411
31412
31413
31415
31418
31423
31430
31440
31441
31446
31448
31459
31461
31484
31489
31492
31498
31520
31528
31638
31675
31695
31697
31730
31749
31765
31773
31774
31781
31785
31790
31807
31809
31811
31817
31818
31820
31827
31828
31829
31838
31839
31840
31871
31874
31877
31878
31886
31887
31888
31892
31895
31901
31906
31913
31916
31917
31934
31957
31960
31967
32103
32104
32221
32223
32229
32233
32235
32237
32255
32258
32259
32261
32262
32265
32288
32310
32323
32324
32326
32359
32363
32367
32369
32372
32380
32382
32487
32917
32923
32924
32941
32944
32957
32963
32968
33001
33008
33018
33019
33022
33024
33029
33053
33055
33056
33065
33066
33073
33080
33089
33090
33092
33098
33114
33117
33118
33119
33121
33127
33142
33145
33150
33156
33157
33171
33183
33189
33196
33199
33200
33212
33214
33216
33222
33236
33238
33239
33240
33265
33267
33277
33283
33292
33293
33294
33298
33332
33353
33356
33359
33363
33376
33394
33408
33412
33415
33429
33430
33445
33446
33448
33453
33454
33463
33470
33473
33474
33508
33523
33529
33533
33535
33551
33554
33556
33557
33562
33565
33574
33581
33582
33583
33586
33589
33597
34372
34439
34777
34778
34929
34954
34981
35002
35019
35026
35066
35113
35144
35145
35146
35152
35164
35220
35283
35318
35395
35398
35462
35465
35478
35479
35480
35482
35484
35503
35510
35512
35523
35530
35532
35565
35568
35569
35575
35582
35586
35652
35669
35728
35741
35744
35749
35764
35772
35773
35801
35834
35845
37456
37582
37997
38023
38239
38247
38250
38256
38261
38552
38553
38557
38586
38603
38710
38768
38769
38810
38816
38817
38818
38888
38902
38907
38917
38950
38952
38954
38974
38981
38985
38986
39009
39011
39012
39019
39023
39033
39034
39098
39100
39117
39119
39142
39167
39176
39210
39220
39233
39246
39250
39391
39392
39398
39400
39404
39533
39811
39812
39823
39999
40202
40205
40208
40212
40265
40333
40336
40380
41163
41172
41354
41451
41453
41598
41870
41872
41873
41876
41945
41961
41964
41991
42024
42358
43209
43222
43223
43224
43225
43236
43252
43253
43255
43263
43267
43268
43323
43351
43403
43419
43446
43452
43464
43527
43560
43578
43589
43602
43607
43621
43656
43665
43666
43673
43696
43738
43740
43741
43749
43891
43893
43895
43907
43915
43917
43919
43933
43946
43947
43948
43949
43952
43963
43964
43977
44004
44013
44015
44017
44021
44023
44024
44028
44037
44048
44078
44079
44106
44110
44138
44180
44216
44229
44237
44242
44243
44245
44263
44280
44286
44297
44298
44308
44309
44315
44317
44382
44385
44386
44387
44388
44406
44407
44408
44409
44417
44419
44420
44421
44426
44427
44434
44435
44437
44442
44443
44490
44491
44530
44531
44536
44538
44540
44547
44549
44583
44594
44596
44611
44641
44652
44653
44678
44717
44719
44726
44737
44739
44740
44741
44746
44754
44757
44761
44800
44806
44815
44816
44832
44834
44835
44842
44845
44852
44904
44918
44919
44922
44924
44927
44940
44946
44949
44954
44960
44973
44982
44986
45030
45066
45074
45081
45082
45097
45148
45149
45150
45489
45500
45501
45503
45541
45572
45624
45647
45801
45809
45810
45829
45830
45839
45991
46001
46002
46041
46046
46055
46060
46063
46064
46074
46089
46093
46094
46109
46121
46129
46206
46221
46247
46329
46346
46353
46380
46448
46453
46538
46579
46582
46583
46584
46594
46595
46597
46598
46608
46609
46614
46724
46742
46744
46757
46782
46835
46896
46897
46950
46962
47524
47525
47534
47612
47614
47616
47620
47621
47623
47701
47767
47840
47862
47898
47915
47932
47933
47941
47944
47945
47946
47947
47949
47950
47953
47954
47958
47967
47981
47983
47985
47996
48105
48150
48151
48157
48179
48205
48288
48327
48349
48370
48381
48393
48410
48412
48416
48421
48426
48454
48462
48475
48497
48520
48521
48525
48573
48576
48601
48608
48740
48758
48959
48969
48971
48981
49035
49068
49084
49085
49101
49102
49107
49117
49118
49120
49123
49210
49223
49224
49361
49538
49596
49685
49697
49698
49703
49708
49710
49716
49733
49745
49747
49748
49757
49764
49765
49772
49776
49777
49778
49780
49788
49789
49791
49802
49829
49908
49912
49913
49923
49932
49958
49963
49974
49979
[ 241 ]
8590
20814
20832
20833
20837
22761
23709
23967
24061
25682
25887
25888
25889
25890
25891
25942
26020
26021
26023
26105
26107
26130
26136
26190
26202
26233
26245
26246
26247
26324
26403
26405
26478
26517
26828
26829
26858
26878
26879
26886
26891
26892
26915
27147
27149
27209
27212
27220
27222
27223
27224
27225
27237
27238
27250
27251
27498
27501
27506
27515
27520
27561
27644
27759
27984
27985
27986
28036
28063
28083
28084
28093
28094
28125
28170
28175
28330
28331
28332
28334
28339
28354
28380
28397
28402
28407
28417
28423
28472
28478
28481
28489
28904
28907
28913
28919
28924
28933
28936
28942
28944
28945
28947
28950
29209
29210
30268
30272
30285
30513
30608
30644
30699
30700
30703
31115
31117
31180
31191
31200
31201
31211
31296
31316
31330
31388
31391
31401
31402
31403
31445
31458
31462
31464
31469
31486
31491
31526
31529
31731
31776
31777
31779
31810
31813
31814
31816
31823
31830
31832
31872
31884
31885
31909
31911
31953
31958
31959
31961
31985
31986
32095
32224
32257
32314
32370
32389
32393
32394
32395
32443
32916
32922
32935
32937
32947
32965
32966
32999
33002
33003
33007
33020
33030
33035
33036
33038
33046
33048
33081
33084
33088
33102
33103
33112
33113
33122
33123
33126
33130
33137
33139
33140
33141
33163
33167
33168
33169
33188
33190
33205
33207
33211
33221
33224
33226
33228
33230
33231
33241
33243
33244
33253
33258
33260
33262
33263
33264
33276
33282
33333
33335
33337
33339
33340
33348
33351
33352
33372
33392
33395
33401
33402
33407
33409
33414
33419
33426
33427
33428
33449
33461
33466
33476
33531
33546
33553
33555
33563
33573
33578
33590
33598
33599
33652
33654
33699
34373
34376
34426
34444
34462
34500
34534
34564
34565
34566
34747
34751
34788
34810
34811
34816
34825
34828
34917
34931
34994
34996
35012
35015
35016
35027
35047
35048
35064
35067
35069
35095
35112
35128
35142
35293
35312
35316
35317
35405
35406
35466
35467
35474
35487
35489
35493
35504
35508
35513
35515
35518
35520
35521
35527
35529
35578
35587
35627
35659
35667
35742
35743
35759
35766
35769
35839
35840
35844
35854
35855
36054
37546
37560
37579
37614
37983
38027
38059
38061
38217
38222
38229
38242
38246
38259
38480
38499
38541
38542
38551
38558
38696
38706
38708
38712
38715
38751
38767
38785
38804
38807
38809
38811
38814
38815
38819
38828
38830
38840
38873
38877
38880
38881
38882
38906
38949
38956
38971
38977
38980
38982
38984
38987
38994
38995
38997
39007
39014
39020
39049
39050
39059
39073
39078
39086
39089
39120
39134
39139
39144
39214
39225
39232
39248
39251
39255
39396
39399
39407
39640
39748
39804
39807
39828
40001
40027
40031
40032
40064
40069
40071
40072
40074
40134
40140
40183
40184
40185
40200
40219
40248
40249
40258
40286
40334
40335
40354
40357
40358
41170
41171
41321
41864
41949
41950
41988
42061
43203
43219
43238
43245
43247
43254
43266
43272
43274
43275
43311
43312
43321
43340
43344
43521
43558
43559
43571
43572
43604
43649
43699
43701
43719
43727
43729
43731
43734
43745
43833
43888
43950
43969
43975
43976
44001
44003
44010
44020
44022
44042
44051
44055
44075
44082
44085
44086
44094
44095
44099
44112
44114
44135
44173
44174
44176
44184
44217
44228
44233
44244
44246
44250
44255
44262
44267
44269
44270
44271
44283
44284
44294
44310
44327
44425
44428
44436
44460
44535
44561
44570
44576
44581
44584
44585
44586
44587
44595
44612
44613
44640
44642
44643
44655
44657
44696
44699
44704
44705
44706
44709
44714
44718
44724
44728
44735
44752
44758
44790
44799
44804
44823
44846
44893
44898
44903
44905
44939
44945
44947
44974
44981
44988
44993
44995
45000
45021
45024
45026
45028
45098
45147
45183
45184
45492
45539
45563
45566
45803
45805
45822
45922
46009
46013
46015
46040
46045
46047
46049
46073
46075
46085
46100
46133
46134
46149
46150
46152
46203
46208
46217
46220
46333
46348
46350
46351
46379
46382
46383
46460
46487
46519
46535
46552
46553
46556
46561
46580
46591
46615
46722
46723
46784
46828
46832
46844
46856
46886
46890
46894
47613
47704
47707
47709
47730
47762
47769
47847
47860
47861
47865
47883
47886
47897
47899
47902
47908
47911
47914
47927
47934
47942
47975
47997
48017
48117
48120
48134
48137
48138
48144
48149
48154
48177
48202
48285
48339
48341
48343
48347
48371
48374
48385
48387
48389
48401
48407
48440
48457
48459
48460
48485
48499
48510
48511
48515
48613
48639
48666
48690
48697
48964
48965
48974
48975
48976
48979
48980
48983
48999
49000
49008
49032
49042
49054
49077
49078
49080
49092
49103
49116
49121
49126
49134
49140
49143
49160
49182
49183
49184
49187
49208
49215
49225
49235
49239
49245
49247
49248
49334
49345
49351
49375
49376
49379
49391
49392
49404
49506
49537
49539
49623
49626
49632
49653
49665
49675
49684
49687
49688
49691
49702
49711
49714
49717
49746
49756
49768
49771
49804
49808
49810
49811
49844
49870
49897
49902
49909
49916
49917
49924
49926
49931
49935
49946
49951
49952
49954
49964
49975
[ 242 ]
23627
25702
26106
26117
26122
26128
26129
26137
26188
26197
26212
26242
26480
26896
26914
27193
27194
27207
27211
27227
27248
27249
27264
27523
27645
27762
27979
27981
28081
28082
28091
28398
28403
28922
28925
28935
28937
28939
28946
28949
30270
30274
30276
30283
30689
30694
31192
31208
31209
31212
31297
31301
31315
31317
31318
31383
31465
31468
31471
31728
31729
31734
31899
31912
31983
32225
32226
32256
32366
32388
32668
32940
32945
32964
33011
33033
33041
33045
33049
33058
33075
33077
33078
33079
33082
33094
33095
33101
33105
33106
33108
33131
33132
33164
33165
33191
33203
33219
33225
33245
33246
33250
33275
33285
33286
33288
33299
33324
33341
33350
33355
33367
33371
33383
33389
33396
33399
33400
33403
33404
33405
33406
33411
33450
33462
33480
33530
33532
33547
33564
33568
33571
33572
33576
33577
33592
33593
33594
33595
33600
33601
33606
33607
33608
33609
33612
33616
33651
33653
33663
33677
33695
33696
33701
34411
34413
34419
34424
34425
34441
34449
34456
34463
34481
34483
34484
34498
34501
34510
34511
34522
34525
34526
34527
34563
34603
34608
34613
34716
34722
34723
34735
34736
34752
34760
34763
34765
34768
34771
34776
34779
34782
34784
34785
34789
34812
34826
34827
34829
34832
34877
34919
34924
34927
34938
34985
35011
35034
35036
35043
35045
35049
35051
35065
35068
35088
35096
35103
35109
35116
35118
35136
35137
35139
35153
35155
35166
35167
35169
35171
35236
35294
35301
35313
35315
35320
35321
35393
35408
35424
35468
35470
35491
35498
35499
35505
35506
35514
35522
35589
35598
35605
35610
35614
35617
35619
35630
35654
35656
35660
35737
35738
35751
35758
35765
35849
35853
35937
36421
36556
37578
37583
37584
37592
37593
37630
37632
37787
37902
37912
38058
38099
38231
38232
38236
38237
38241
38244
38251
38458
38475
38476
38531
38535
38536
38538
38549
38550
38554
38562
38563
38564
38565
38568
38588
38593
38595
38608
38691
38713
38714
38717
38719
38734
38798
38802
38805
38806
38808
38821
38823
38825
38826
38829
38839
38845
38854
38868
38879
38883
38885
38928
38929
38976
38978
38988
38989
38998
39005
39015
39016
39018
39053
39056
39057
39067
39072
39076
39215
39242
39249
39269
39406
39501
39537
39549
39551
39552
39553
39569
39572
39574
39638
39641
39663
39667
39710
39777
39779
39794
39796
39883
39916
39917
39920
39981
39988
39990
39992
40028
40029
40030
40062
40070
40076
40077
40078
40079
40090
40093
40106
40114
40132
40187
40188
40190
40191
40199
40214
40252
40254
40280
40291
40292
40293
40303
40353
41332
41993
43220
43221
43239
43241
43244
43248
43256
43257
43259
43557
43601
43710
43728
43743
43744
43746
43889
43957
43970
43971
44044
44054
44056
44057
44064
44065
44084
44113
44115
44204
44218
44239
44273
44274
44287
44290
44293
44444
44446
44528
44537
44554
44575
44616
44622
44630
44637
44656
44681
44682
44686
44702
44710
44729
44744
44745
44763
44772
44781
44895
44899
44900
44925
44938
44972
44980
44983
44989
45007
45016
45547
45799
46012
46036
46043
46054
46070
46076
46097
46204
46339
46464
46479
46546
46550
46555
46562
46659
46712
46745
46748
46829
46833
46838
46849
46865
46891
46892
46893
47085
47529
47538
47565
47624
47816
47826
47846
47848
47859
47881
47887
47924
47937
47938
47957
47959
47961
47964
47973
48098
48115
48122
48132
48140
48141
48153
48156
48167
48342
48344
48345
48361
48369
48373
48378
48380
48390
48395
48432
48449
48456
48476
48477
48478
48480
48484
48494
48508
48649
48651
48685
48686
48773
48774
48989
48995
49012
49030
49037
49041
49079
49091
49104
49119
49128
49132
49147
49152
49153
49154
49175
49177
49238
49241
49243
49244
49253
49270
49292
49343
49348
49350
49378
49381
49384
49387
49389
49395
49400
49401
49505
49583
49586
49614
49621
49635
49640
49641
49664
49669
49683
49692
49693
49722
49729
49738
49755
49792
49793
49797
49814
49815
49816
49817
49819
49841
49843
49845
49846
49850
49854
49871
49879
49881
49893
49910
49929
49945
49950
49955
49956
49988
49993
49994
[ 243 ]
26025
26893
26897
27195
27196
27203
27204
27208
27760
27980
27982
28089
28090
28092
28399
30284
31215
31293
31300
31319
31470
31540
31541
31900
33006
33010
33043
33061
33076
33134
33135
33138
33201
33204
33247
33248
33257
33344
33345
33346
33366
33368
33369
33373
33374
33386
33391
33477
33483
33552
33560
33596
33602
33603
33604
33605
33610
33614
33615
33618
33621
33629
33630
33633
33639
33640
33658
33659
33660
33662
33665
33674
33678
33690
34377
34383
34384
34385
34387
34388
34390
34455
34457
34461
34464
34466
34469
34473
34480
34502
34504
34507
34516
34521
34523
34533
34542
34574
34576
34604
34605
34611
34612
34632
34633
34691
34692
34703
34705
34707
34719
34732
34762
34764
34769
34770
34772
34791
34802
34803
34808
34813
34815
34818
34819
34824
34834
34874
34918
35039
35087
35091
35102
35104
35108
35119
35129
35131
35134
35135
35305
35407
35409
35492
35494
35495
35497
35590
35591
35608
35609
35611
35618
35621
35637
35752
35824
35831
35846
35946
36340
36447
36450
36558
37576
37586
37588
37590
37591
37612
37624
37645
37653
37907
37911
37914
38028
38186
38224
38496
38527
38539
38540
38543
38544
38546
38547
38590
38591
38592
38599
38600
38607
38610
38612
38624
38633
38636
38649
38668
38677
38716
38724
38730
38732
38737
38797
38799
38801
38870
38884
38886
38930
38992
39052
39054
39060
39063
39064
39065
39066
39074
39087
39137
39448
39449
39483
39502
39524
39529
39534
39536
39538
39539
39548
39568
39596
39629
39630
39631
39662
39676
39678
39697
39702
39704
39716
39717
39731
39751
39780
39784
39792
39793
39882
39899
39918
39919
39931
39982
39983
39984
39987
40008
40010
40015
40022
40026
40042
40043
40057
40066
40067
40068
40073
40075
40081
40084
40086
40091
40092
40094
40096
40111
40113
40126
40133
40135
40137
40141
40145
40172
40182
40196
40216
40247
40253
40271
40274
40298
41333
43215
43240
43243
43246
43264
43265
43302
43303
43956
44047
44060
44063
44089
44100
44101
44103
44181
44251
44252
44288
44577
44579
44615
44618
44619
44632
44633
44680
44766
44769
44770
44771
44780
44786
44926
44971
44979
45003
45023
45206
46011
46086
46336
46465
46478
46503
46510
46511
46512
46514
46711
46746
46747
47563
47564
47708
47719
47724
47813
47815
47825
47831
47832
47834
47837
47844
47884
47912
47925
48159
48162
48166
48169
48174
48346
48388
48405
48481
48482
48490
48493
48502
48504
48516
48731
48772
48982
48990
48997
49240
49242
49250
49251
49260
49266
49271
49281
49298
49299
49319
49324
49341
49349
49396
49397
49402
49405
49408
49449
49486
49514
49618
49627
49634
49644
49657
49727
49795
49796
49798
49806
49839
49840
49848
49851
49855
49856
49860
49861
49872
49876
49878
49880
49891
49930
49936
49943
49944
49949
49953
49957
49991
49992
49995
49996
[ 244 ]
27205
27206
28400
33040
33044
33050
33133
33193
33342
33365
33479
33613
33619
33620
33622
33632
33634
33637
33641
33647
33648
33649
33664
33673
33675
33687
33692
33693
34371
34380
34381
34382
34394
34395
34405
34407
34433
34435
34445
34460
34468
34478
34491
34495
34515
34519
34520
34532
34538
34541
34556
34561
34573
34577
34582
34586
34589
34590
34591
34598
34599
34606
34621
34631
34639
34643
34649
34650
34651
34653
34660
34661
34699
34708
34710
34713
34721
34724
34739
34740
34741
34753
34758
34759
34805
34806
34807
34820
34821
34822
34876
34899
35007
35081
35084
35106
35138
35296
35299
35302
35303
35304
35594
35596
35599
35604
35613
35615
35651
35657
35754
35829
35832
35936
35942
35943
36379
36418
36419
36420
36448
36449
37589
37615
37618
37619
37627
37903
37906
37913
38548
38594
38596
38613
38614
38616
38625
38634
38722
38738
38800
38822
38832
38849
38855
38856
38863
38871
38945
38946
39062
39410
39444
39450
39460
39461
39472
39484
39499
39503
39514
39515
39557
39560
39564
39576
39578
39582
39595
39613
39634
39642
39644
39645
39647
39655
39661
39698
39700
39712
39718
39721
39728
39736
39746
39747
39749
39750
39761
39763
39776
39785
39791
39801
39902
39906
39908
39921
39935
39938
39958
39971
39979
39980
39985
40009
40011
40012
40034
40038
40039
40045
40053
40063
40080
40082
40085
40100
40104
40105
40108
40123
40124
40128
40142
40143
40148
40152
40158
40193
40195
40197
40198
40341
43242
43306
43959
44062
44102
44580
44623
44626
44627
44629
44787
45200
45201
46338
46461
46497
46667
47229
47712
47715
47716
47722
47783
47807
47822
47824
47828
47833
47836
47843
47936
47963
48148
48171
48404
48506
48507
48771
48987
48991
48992
49017
49018
49252
49255
49256
49259
49268
49278
49279
49290
49291
49297
49308
49332
49340
49453
49465
49468
49510
49513
49651
49679
49719
49721
49723
49737
49849
49859
49873
49874
49883
49887
49937
49938
49940
49941
49942
49989
49990
[ 245 ]
33623
33624
33636
33638
33642
33643
33645
34397
34402
34408
34451
34452
34459
34471
34477
34489
34490
34506
34508
34517
34540
34544
34549
34550
34552
34553
34557
34559
34578
34579
34588
34622
34623
34624
34625
34628
34635
34636
34637
34642
34644
34646
34647
34648
34652
34655
34656
34665
34670
34673
34677
34685
34690
34695
34697
34700
34711
34712
34714
34728
34766
34794
35071
35085
35120
35121
35123
35126
35297
35616
35753
35941
36377
36378
37575
37597
37611
37625
38615
38619
38620
38627
38632
38640
38644
38646
38648
38657
38661
38667
38669
38672
38682
38723
38852
38940
38941
38942
39462
39474
39480
39498
39516
39559
39561
39562
39563
39565
39566
39567
39577
39580
39587
39593
39612
39614
39620
39623
39625
39626
39633
39643
39648
39650
39657
39659
39706
39707
39715
39726
39730
39741
39755
39762
39781
39787
39788
39789
39790
39881
39898
39922
39925
39973
39978
39991
40018
40019
40037
40044
40050
40055
40059
40098
40101
40103
40129
40149
40150
40154
40155
40157
40160
40175
40177
40272
43290
43291
43296
43298
43308
43555
44621
44628
44785
46443
46472
46569
47718
47720
47789
47827
47829
47830
48769
48770
48986
49261
49264
49273
49275
49293
49303
49720
49858
49862
49884
49939
49997
[ 246 ]
33644
34399
34404
34492
34547
34551
34554
34558
34560
34581
34587
34593
34594
34595
34600
34626
34627
34641
34663
34664
34666
34667
34668
34671
34672
34674
34676
34684
34686
34688
34689
34726
34793
37636
38030
38629
38630
38631
38650
38655
38658
38660
39425
39429
39438
39440
39441
39475
39476
39477
39481
39494
39517
39518
39520
39591
39592
39594
39627
39635
39649
39683
39692
39709
39714
39739
39742
39743
39745
39752
39758
39897
39900
39936
39976
40023
40040
40052
40102
40156
40169
40170
43292
44784
46439
46445
46504
47790
47794
47798
47799
47801
47803
47812
49265
49269
49725
[ 247 ]
34580
34596
34640
34678
34681
34687
37905
38659
38665
39417
39422
39451
39493
39523
39590
39619
39628
39632
39681
39691
39766
39903
39946
39952
40162
40163
40174
40176
46444
[ 248 ]
34683
38643
38652
39418
39432
39492
39497
39604
39609
39618
39682
39943
39944
39977
40161
40164
40165
[ 249 ]
38654
39951
40118
40119
40120
[ 250 ]
38653
[ 257 ]
9004
9005
9028
[ 258 ]
9002
9027
9045
9223
[ 259 ]
8987
8989
8999
9025
9030
9031
9069
9085
[ 260 ]
3780
3802
4585
8990
8991
8992
8995
9035
9051
9068
9073
9075
9076
9078
9082
9086
9092
9127
9253
9256
10388
13334
[ 261 ]
3570
3573
3577
3681
3685
3690
3691
3760
3793
3807
5974
8993
9020
9043
9072
9079
9084
9089
9097
9098
9144
9147
9155
9255
9345
10387
10468
10511
11018
13315
13326
13335
18253
19743
19772
24907
[ 262 ]
3253
3561
3564
3574
3587
3593
3597
3606
3609
3610
3742
3754
3757
3784
3791
3792
3805
3806
3819
3855
3856
3857
4454
4596
4598
5970
6007
6030
9062
9067
9130
9141
9154
9248
9249
9736
9875
9876
10364
10365
10390
10396
10464
10496
10512
10716
11019
11021
11489
12614
13294
13297
13299
13300
13322
13336
13391
14132
14684
18252
19719
19720
19721
19722
19744
19748
19749
19751
19765
19767
19768
19769
24906
29486
[ 263 ]
3536
3598
3600
3639
3677
3689
3719
3726
3728
3743
3744
3745
3752
3756
3759
3783
3790
3795
3797
3808
3809
3813
3830
3852
3859
4007
4531
4850
4911
5994
6001
6002
6003
6014
6015
6017
8219
9060
9061
9123
9124
9739
9741
9818
9839
9877
10341
10372
10377
10395
10397
10405
10413
10440
10499
10520
10578
10585
10598
10602
10617
11354
11356
11368
11485
11486
11487
13134
13293
13296
13314
13331
13332
13343
13411
13421
13673
14067
14068
14678
14682
14688
15733
15821
17823
18105
18254
18295
19718
19741
19745
20261
21937
24380
24596
24625
24626
24668
24735
24765
24905
26646
26647
29330
29484
45697
[ 264 ]
2943
2946
3230
3237
3248
3251
3332
3512
3513
3533
3540
3548
3550
3554
3558
3559
3613
3625
3626
3629
3643
3649
3718
3729
3735
3736
3739
3740
3746
3762
3763
3775
3796
3825
3827
3829
3860
3861
3864
3868
3869
3870
3909
3995
4004
4530
4935
4936
5975
5999
6006
6326
7731
7746
8200
8214
8217
8220
8221
8223
8224
8227
8276
9367
9618
9696
9709
9768
9774
9815
9824
9826
9837
9859
9936
9954
9961
10030
10361
10376
10412
10415
10422
10424
10436
10446
10447
10452
10528
10569
10583
10590
10592
10594
10676
13280
13287
13290
13292
13381
13382
13389
13401
13494
13669
13843
13909
14148
14376
14390
14498
14599
14711
15814
15819
15820
15822
15824
15902
17203
17784
17785
17822
17847
17849
18256
18263
18282
18291
18293
18299
18338
18588
19617
19736
19754
19756
19759
19763
20262
20263
20266
20276
20765
20891
20896
20903
20908
20915
20970
22376
24304
24379
24399
24468
24479
24485
24584
24618
24619
24620
24621
24622
24643
24676
24731
24766
24772
24774
24775
24819
24872
24904
25582
27000
29333
29481
29529
29848
45343
45344
45408
45757
45760
45778
[ 265 ]
2944
2945
2947
2949
2951
3192
3195
3200
3400
3545
3552
3556
3614
3616
3630
3650
3656
3658
3667
3672
3676
3734
3747
3764
3766
3773
3776
3810
3816
3826
3883
3890
3891
3898
3899
3904
3913
3923
3933
3937
3971
3993
4713
4915
4916
4934
5988
5990
6594
6665
7130
7320
7442
7445
7446
7574
7595
7691
7693
7729
7748
7749
7754
7855
7890
7912
8038
8208
8218
8231
8237
8253
8616
9289
9377
9574
9623
9634
9638
9652
9695
9699
9705
9722
9753
9762
9772
9828
9829
9861
9923
9935
9945
9948
10380
10401
10403
10410
10414
10416
10417
10419
10420
10423
10449
10474
10479
10490
10495
10593
10595
11288
12755
12845
12862
12962
13040
13042
13077
13115
13119
13126
13129
13143
13165
13240
13268
13281
13289
13306
13351
13410
13485
13487
13488
13496
13498
13499
13667
13698
13713
13845
14058
14060
14061
14062
14066
14070
14146
14147
14169
14392
14393
14442
14455
15243
15354
15513
15514
15534
15576
15740
15788
15812
15815
15823
15834
16187
17126
17234
17245
17266
17437
17466
17491
17662
17727
17781
17789
17790
17826
17839
17850
17951
17964
17991
18004
18006
18289
18290
18694
18726
19620
19686
19687
19737
19738
19740
19776
19844
20044
20058
20093
20104
20265
20269
20273
20751
20783
20866
20885
20886
20887
20888
20895
20914
20934
20950
20951
20969
20984
20988
21496
21501
21855
21942
22194
22368
22373
22374
23259
23520
24270
24278
24398
24400
24402
24467
24472
24481
24500
24540
24623
24644
24671
24674
24738
24743
24761
24763
24783
24793
24802
24815
24874
24893
24894
24895
24903
25077
25552
25579
25583
25586
25587
25757
26358
26668
26764
26993
26996
27003
27032
27043
27815
27864
27873
27891
27892
28303
29335
29425
29426
29706
29843
29847
29920
29927
41889
41890
45360
45396
45431
45671
45695
45700
45779
45793
[ 266 ]
2822
2824
2851
2855
2856
2927
2928
2940
2952
2959
2960
2961
2963
3194
3231
3260
3325
3344
3345
3404
3448
3510
3615
3632
3651
3657
3660
3662
3668
3671
3714
3716
3778
3881
3886
3887
3900
3901
3924
3927
3928
3930
3949
4018
5163
5275
6519
6532
6583
6593
6630
6675
6834
6875
6922
6949
6954
6971
6974
6984
6988
7001
7041
7067
7068
7110
7127
7315
7439
7440
7510
7541
7542
7557
7571
7573
7606
7615
7651
7690
7696
7733
7744
7752
7755
7786
7787
7791
7795
7825
7829
7835
7844
7845
7856
7866
7880
7905
7920
7928
7930
7931
7932
7962
7970
7976
7979
7996
8054
8061
8075
8078
8158
8161
8180
8181
8190
8236
8383
8530
8617
8619
8622
8624
9378
9537
9564
9569
9573
9575
9576
9582
9586
9589
9607
9614
9671
9689
9691
9692
9704
9706
9812
9814
9830
9864
9865
10382
10383
10402
10407
10426
10427
10489
10494
10871
12756
13035
13036
13043
13045
13068
13070
13080
13116
13122
13127
13128
13131
13153
13154
13157
13166
13191
13236
13252
13307
13355
13475
13477
13479
13484
13491
13502
13518
13566
13570
13578
13677
13679
13692
13707
13708
13745
13782
13784
13832
13936
13937
13938
13940
13950
13985
13997
14006
14053
14063
14144
14377
14441
14444
14459
14475
14499
14576
14701
15035
15041
15043
15144
15182
15363
15790
15810
15832
15901
16185
16186
16188
16219
16327
16352
16353
16358
16360
16420
16560
16875
17142
17161
17171
17235
17236
17438
17452
17782
17783
17817
17819
17825
17840
17852
17853
17957
17963
18005
18318
18570
18587
18589
18619
18651
18652
18659
18663
18708
18758
19087
19175
19179
19362
19377
19642
19666
19676
19787
19788
19799
19800
19806
19815
19838
19840
19841
19894
20061
20067
20225
20260
20278
20316
20782
20927
20936
20940
20949
20987
21500
21502
21503
21505
21506
21507
21851
22191
22195
22196
22197
22255
22346
22369
22711
22842
22868
22869
23006
23258
24200
24279
24288
24289
24297
24306
24312
24316
24317
24319
24390
24393
24394
24395
24401
24405
24406
24414
24484
24488
24491
24497
24499
24502
24503
24511
24566
24572
24573
24592
24602
24603
24632
24642
24647
24651
24661
24664
24667
24669
24670
24709
24713
24742
24753
24755
24776
24784
24794
24804
24877
24881
24883
24887
25051
25205
25207
25240
25297
25476
25507
25511
25592
25619
25637
25647
25734
25803
26004
26165
26278
26461
26547
26670
26687
26690
26763
26782
26803
26979
26992
27002
27010
27025
27033
27036
27059
27087
27094
27095
27100
27134
27136
27300
27396
27471
27547
27598
27680
27713
27738
27780
27846
27876
27896
27910
28014
29264
29423
29424
29492
29523
29527
29567
29705
29740
29922
30362
31063
41893
41898
43409
44347
45350
45395
45407
45424
45428
45430
45432
45599
45601
45660
45663
45719
45739
45769
45771
45780
45781
45975
46163
46170
46176
46772
46921
46923
46925
46941
48319
48747
[ 267 ]
2826
2846
2848
2854
2857
2878
2879
2954
2967
2968
2969
3006
3016
3046
3100
3170
3181
3185
3186
3189
3190
3191
3197
3205
3311
3394
3398
3399
3402
3405
3416
3451
3669
3713
3872
3882
3884
3893
3894
3902
3906
4017
6576
6586
6587
6588
6595
6596
6597
6631
6634
6649
6663
6672
6674
6718
6725
6734
6768
6775
6779
6822
6952
6953
6957
6959
6965
6973
6982
6986
7002
7005
7007
7042
7090
7101
7122
7132
7150
7166
7207
7316
7372
7377
7419
7425
7427
7448
7449
7455
7470
7476
7497
7499
7500
7509
7511
7512
7524
7537
7539
7544
7555
7556
7565
7584
7604
7614
7625
7645
7652
7653
7657
7659
7714
7717
7735
7756
7757
7762
7765
7771
7774
7775
7776
7781
7784
7792
7798
7799
7803
7807
7812
7813
7814
7827
7828
7831
7832
7833
7837
7859
7861
7862
7884
7889
7929
7940
7941
7942
7960
7961
8002
8017
8018
8021
8037
8039
8055
8062
8065
8069
8070
8072
8073
8080
8081
8084
8130
8138
8140
8166
8246
8247
8345
8384
8528
8629
8638
8645
8653
9287
9566
9583
9587
9603
9745
9747
9748
10493
10531
10533
12758
12759
12836
12849
12850
13028
13052
13139
13147
13366
13489
13503
13504
13532
13536
13541
13561
13563
13568
13574
13605
13617
13666
13804
13806
13930
13939
13949
13963
13978
13980
14004
14013
14368
14438
14443
14445
14446
14460
14461
14463
14487
14727
14864
14867
14872
15034
15040
15221
15358
15438
15571
15673
15676
15761
15766
15786
15805
15806
15829
15831
15898
15899
15900
16162
16216
16218
16229
16238
16334
16344
16346
16347
16354
16355
16374
16545
16769
17133
17143
17145
17157
17159
17164
17168
17449
17472
17501
17502
17512
17539
17740
17799
17832
17851
17919
18138
18146
18147
18319
18320
18354
18569
18575
18586
18590
18591
18592
18617
18644
18685
18700
18714
18716
18850
19331
19652
19662
19785
19790
19801
19802
19808
19809
19816
20039
20186
20193
20200
20204
20249
20279
20289
20295
20300
20302
20304
20308
20882
20883
20952
20972
20981
20982
20990
20991
21868
21870
21880
21943
21945
22192
22347
22352
22372
22660
22805
22809
22866
22867
23008
23018
23257
23861
24252
24275
24277
24280
24292
24314
24315
24321
24345
24347
24360
24376
24391
24450
24451
24473
24474
24489
24574
24604
24658
24666
24675
24710
24711
24712
24720
24722
24790
24792
24812
24875
24998
25000
25058
25059
25071
25075
25101
25103
25271
25272
25296
25298
25299
25445
25447
25477
25479
25502
25512
25541
25549
25631
25633
25635
25648
25720
25778
25797
25960
25995
25996
26008
26308
26359
26464
26609
26640
26644
26662
26667
26671
26677
26678
26708
26784
26794
26798
26808
27008
27011
27012
27019
27022
27030
27047
27049
27089
27090
27096
27101
27102
27107
27108
27128
27131
27138
27294
27303
27357
27374
27376
27387
27394
27398
27448
27456
27458
27475
27534
27546
27549
27622
27691
27732
27768
27841
27852
27866
27887
28015
28016
28135
28139
28300
28301
28302
28349
28853
29159
29342
29468
29569
29679
29699
29714
29921
29929
30102
30165
30363
35560
41976
43645
43989
43993
44345
45087
45358
45359
45378
45416
45417
45418
45429
45433
45445
45457
45591
45598
45638
45639
45651
45659
45662
45673
45774
45775
45791
45792
45868
45869
45885
45974
45977
46161
46162
46166
46168
46174
46177
46922
47651
48056
48058
48240
48748
48809
48909
48933
[ 268 ]
2818
2821
2830
2834
2869
2880
2882
2885
2905
2921
2929
2965
2980
2983
2985
2993
2995
3005
3018
3026
3049
3056
3077
3098
3141
3155
3156
3169
3175
3182
3187
3284
3291
3297
3328
3395
3447
3877
5080
5166
6563
6572
6573
6574
6577
6578
6582
6591
6619
6637
6659
6670
6678
6681
6688
6692
6712
6713
6714
6716
6717
6727
6729
6730
6731
6732
6741
6757
6761
6770
6771
6774
6777
6780
6818
6821
6832
6874
6876
6877
6880
6888
6894
6905
6906
6912
6927
6928
6931
6933
6937
6951
6966
6967
6968
6979
6995
6997
7026
7031
7034
7043
7086
7107
7151
7362
7374
7378
7379
7382
7416
7420
7423
7454
7457
7471
7472
7473
7477
7508
7538
7618
7619
7654
7655
7656
7670
7671
7672
7673
7699
7711
7720
7721
7722
7725
7726
7760
7761
7764
7766
7773
7779
7782
7800
7809
7816
7818
7836
7852
7853
7860
7863
7864
7876
7919
7927
7944
7947
7951
7955
7958
7978
7980
8008
8009
8013
8016
8027
8029
8030
8041
8042
8043
8045
8050
8079
8101
8102
8163
8164
8168
8240
8243
8244
8245
8360
8366
8368
8370
8374
8376
8378
8380
8469
8494
8553
8557
8580
8583
8654
9299
9545
12824
12829
12842
12868
13151
13221
13225
13233
13535
13540
13548
13586
13591
13593
13602
13606
13609
13610
13611
13613
13614
13618
13663
13709
13752
13808
13981
14437
14440
14447
14485
14767
14858
15162
15183
15185
15377
15380
15587
15767
15781
15798
15830
15891
15892
15894
16213
16224
16276
16328
16329
16337
16340
16345
16383
16411
17152
17156
17163
17165
17218
17442
17450
17505
17523
17755
17798
17801
17803
17815
17874
17875
17917
18037
18322
18360
18390
18538
18541
18581
18600
18650
18672
18675
18684
18723
18740
19027
19379
19443
19643
19647
19796
19811
19812
19813
19836
20281
20282
20284
20285
20288
20293
20307
20884
20995
20996
21000
21833
21867
21884
21909
21917
22188
22431
22725
22976
23004
23017
23019
23263
23717
23759
24201
24205
24242
24251
24276
24281
24311
24336
24337
24341
24344
24354
24361
24368
24369
24459
24490
24524
24546
24568
24665
24723
24725
24788
24795
24844
24999
25001
25009
25011
25060
25066
25083
25087
25097
25098
25126
25203
25204
25219
25264
25268
25353
25480
25485
25487
25489
25499
25500
25515
25548
25558
25569
25589
25622
25627
25650
25659
25660
25721
25727
25775
25782
25801
25825
25827
25835
25989
26011
26012
26014
26034
26282
26340
26351
26352
26468
26502
26509
26546
26695
26699
26715
26735
26785
26836
26847
27015
27016
27020
27021
27026
27027
27028
27037
27073
27080
27082
27085
27091
27098
27105
27106
27110
27111
27123
27129
27137
27144
27291
27315
27355
27358
27382
27453
27474
27476
27477
27483
27530
27540
27544
27570
27614
27616
27653
27692
27700
27772
27781
27857
27862
27879
27958
27965
27966
28013
28070
28102
28106
28131
28132
28136
28137
28138
28281
28305
28306
28312
28344
28347
28496
28831
28837
28864
29145
29322
29356
29430
29464
29559
29933
30034
30080
30098
30107
30108
30669
30673
31557
31562
31634
32300
35707
39039
39110
39201
41975
43188
43379
43467
43610
43625
43637
43643
43859
43865
43866
43876
43912
43927
43994
44143
44340
44348
44349
44358
44359
44670
44671
45059
45062
45064
45078
45088
45091
45132
45140
45328
45353
45354
45355
45357
45420
45422
45425
45434
45435
45436
45438
45439
45444
45446
45448
45449
45460
45466
45467
45516
45518
45519
45589
45592
45593
45595
45597
45654
45773
45784
45787
45790
45864
45871
45875
45890
45891
45892
45981
46179
46224
46232
46233
46239
46241
46255
46543
46795
46910
46924
46926
46930
47545
47636
47649
47650
47657
48030
48033
48038
48054
48071
48075
48250
48252
48254
48261
48291
48563
48565
48578
48675
48854
48860
48895
48906
48912
48914
48918
49096
[ 269 ]
2794
2815
2853
2861
2870
2997
3002
3013
3024
3027
3028
3029
3037
3038
3040
3043
3057
3081
3082
3127
3136
3139
3140
3143
3149
3168
3171
3174
3180
3184
3188
3288
3290
3298
3361
3371
3379
3420
3431
3442
5165
6556
6561
6564
6565
6566
6567
6568
6570
6571
6580
6599
6612
6615
6621
6628
6640
6697
6701
6728
6737
6749
6754
6760
6764
6787
6820
6865
6866
6870
6881
6883
6885
6886
6887
6890
6907
6909
6932
6961
6980
6981
6996
7022
7030
7032
7033
7036
7073
7181
7182
7186
7198
7226
7227
7228
7233
7235
7236
7246
7247
7257
7278
7279
7286
7295
7328
7332
7335
7348
7354
7355
7357
7365
7373
7381
7411
7413
7424
7451
7458
7459
7461
7475
7478
7479
7480
7525
7627
7635
7681
7708
7709
7723
7734
7738
7741
7759
7763
7769
7805
7811
7819
7841
7874
7875
7936
7939
7943
7948
7949
7954
8019
8040
8049
8052
8053
8082
8095
8361
8362
8369
8373
8473
8495
8496
8500
8502
8523
8524
8525
8545
8546
8554
8567
8571
8575
8576
8633
12835
12867
12869
13072
13073
13232
13571
13572
13588
13589
13590
13594
13595
13597
13600
13601
13607
13622
13634
13641
13642
13644
13645
13654
13685
13751
14439
14448
14763
15037
15038
15164
15220
15566
15567
15685
15799
15827
15889
15890
15897
16225
16226
16228
16230
16250
16251
16270
16275
16339
16350
16377
16408
16409
16679
16690
16760
17432
17528
17533
17536
17560
17711
17714
17769
17868
17871
18344
18351
18355
18373
18400
18576
18580
18599
18606
18608
18673
18737
19021
19381
19382
19385
19412
19425
19635
19818
19829
20213
20283
20286
20287
20305
20795
20875
21829
21865
21882
21883
21886
21887
21888
21905
21911
22206
22704
22751
22974
22977
22983
22993
23005
23271
23592
23731
23946
23963
24141
24204
24249
24250
24263
24326
24328
24329
24331
24332
24339
24342
24355
24365
24366
24367
24435
24439
24550
24657
24659
25006
25062
25084
25093
25117
25119
25127
25137
25139
25141
25164
25170
25171
25201
25275
25284
25291
25300
25307
25378
25389
25484
25486
25504
25518
25560
25561
25564
25570
25576
25616
25629
25661
25665
25669
25739
25831
25832
25833
25834
25843
25844
25905
25935
25959
25976
25990
25993
25999
26000
26013
26032
26057
26069
26174
26303
26339
26349
26367
26379
26417
26418
26436
26520
26545
26816
26823
26838
26840
26842
26844
26846
26848
26866
27013
27051
27072
27079
27081
27103
27104
27115
27117
27272
27312
27330
27331
27341
27353
27359
27372
27380
27391
27393
27405
27433
27443
27444
27446
27449
27451
27454
27465
27466
27467
27486
27489
27539
27572
27605
27620
27621
27650
27651
27664
27697
27746
27747
27756
27858
27964
28010
28011
28051
28061
28122
28159
28160
28220
28224
28258
28259
28270
28272
28287
28319
28883
29233
29463
29476
29925
30035
30115
30122
30125
30650
30661
31164
31479
31648
31649
31670
31825
31976
31977
32274
32282
32304
32408
32951
32952
32960
33072
33362
33542
35548
35559
35813
35868
37550
38897
39038
39040
39104
39105
39109
39146
39192
39199
41868
41887
41916
41926
41938
41955
41956
41973
41974
41982
42067
43411
43415
43455
43492
43494
43503
43513
43514
43522
43611
43619
43620
43622
43623
43624
43634
43636
43639
43654
43814
43928
43981
43992
44147
44153
44155
44191
44332
44350
44353
44397
44601
44672
44914
45040
45046
45055
45058
45092
45093
45133
45171
45314
45327
45367
45454
45458
45459
45462
45509
45510
45529
45532
45569
45587
45590
45596
45609
45613
45614
45618
45630
45652
45789
45811
45867
45872
45876
45880
45893
45901
45908
45954
45962
45996
46067
46146
46156
46186
46190
46192
46199
46226
46228
46229
46238
46242
46602
46603
46675
46681
46726
46767
46903
46929
47544
47555
47603
47610
47632
47637
47676
47742
47747
47753
48036
48040
48050
48063
48069
48126
48127
48128
48231
48239
48255
48259
48321
48332
48365
48398
48549
48554
48558
48564
48567
48568
48577
48592
48597
48674
48679
48680
48733
48804
48808
48810
48826
48894
48897
48899
48900
48901
48902
48903
48905
48907
48915
48916
48917
48920
48927
48928
48929
49060
49097
49199
[ 270 ]
936
2796
2801
2807
2843
2956
2973
2987
2992
2999
3001
3032
3035
3036
3039
3067
3079
3080
3085
3097
3103
3104
3106
3147
3162
3167
3173
3177
3294
3296
3306
3359
3380
3393
6547
6550
6551
6611
6613
6641
6703
6750
6755
6853
6857
6863
6867
6893
7180
7183
7184
7187
7225
7237
7238
7241
7260
7266
7276
7284
7336
7368
7370
7394
7396
7399
7464
7484
7674
7685
7687
7688
7704
7758
7817
7937
8005
8025
8048
8460
8467
8471
8487
8501
8504
8506
8507
8513
8514
8536
8552
8570
8586
8588
8595
8607
8609
13230
13553
13615
13619
13623
13624
13626
13627
13636
13637
13643
13647
13659
15189
15219
15769
15780
15782
16240
16243
16274
17863
18368
18371
18372
18375
18377
18379
18385
18392
18577
18602
18610
18612
18615
19024
19445
19446
19645
19820
19821
19823
19825
19833
19835
20793
20823
20825
21834
22768
22817
22828
22984
22988
23061
23065
23265
23268
23730
23754
23950
24040
24213
24218
24221
24247
24254
24262
24272
24282
24330
24356
24371
24455
25094
25116
25140
25189
25190
25195
25198
25292
25302
25306
25609
25653
25657
25666
25667
25668
25670
25671
25673
25850
25862
25864
25865
25902
25903
25912
25915
25916
25926
25936
25961
25966
25968
25980
25991
25998
26059
26078
26152
26168
26179
26183
26184
26187
26208
26268
26273
26289
26304
26342
26381
26416
26419
26425
26435
26472
26521
26522
26776
26833
26834
26837
26839
26841
26867
26870
26923
26935
27017
27071
27112
27113
27116
27184
27187
27254
27314
27329
27338
27351
27352
27360
27368
27378
27389
27390
27392
27400
27406
27407
27408
27409
27415
27427
27432
27440
27461
27511
27537
27538
27542
27543
27573
27604
27640
27671
27694
27765
27770
27793
27963
28008
28009
28018
28052
28060
28110
28120
28129
28152
28327
28337
28408
28464
28494
28498
28499
28897
29124
29297
29471
29932
30110
30111
30113
30118
30120
30161
30378
30465
30678
31166
31326
31424
31438
31635
31644
31647
31651
31656
31659
31672
31683
31793
31794
31880
31889
31897
31945
31971
31979
32281
32293
32955
33016
33068
33144
33172
33328
33417
33438
33441
33442
33543
35551
35555
35784
35811
35817
35867
37549
38911
38972
39149
39173
39174
39196
41874
41878
41879
41905
41927
41932
41936
41966
41970
41980
41987
42002
43325
43345
43461
43474
43489
43491
43495
43497
43500
43502
43504
43505
43517
43518
43587
43588
43590
43592
43593
43595
43596
43618
43627
43629
43631
43638
43655
43658
43669
43675
43676
43686
43697
43758
43766
43767
43770
43774
43778
43841
43845
43868
43870
43898
43900
43909
43984
43990
44007
44018
44118
44149
44152
44247
44313
44400
44422
44565
44592
44691
44811
45037
45038
45041
45042
45056
45065
45076
45084
45094
45101
45108
45110
45160
45283
45442
45443
45463
45482
45488
45505
45522
45606
45611
45616
45788
45815
45840
45845
45849
45851
45904
45929
45959
45972
45989
45994
46017
46057
46080
46126
46147
46180
46181
46184
46188
46197
46198
46200
46211
46213
46223
46246
46544
46599
46763
46766
46881
46900
47526
47542
47591
47644
47645
47646
47655
47658
47693
47700
47752
47754
47756
47757
47758
47763
47851
47852
47870
47922
47929
47990
47995
48000
48015
48021
48041
48110
48186
48188
48203
48207
48209
48224
48256
48258
48260
48266
48270
48279
48289
48298
48300
48301
48302
48306
48307
48313
48329
48335
48353
48443
48464
48471
48473
48512
48531
48538
48540
48541
48543
48548
48553
48555
48557
48562
48566
48569
48570
48571
48572
48583
48586
48587
48591
48593
48594
48595
48596
48683
48710
48711
48714
48716
48722
48726
48727
48739
48744
48756
48794
48801
48802
48806
48814
48850
48851
48855
48856
48858
48866
48893
48896
48898
48939
48947
48949
48961
49099
49163
49169
49598
49743
49751
49758
49759
49761
49779
49783
49787
49821
49831
49960
49970
[ 271 ]
937
2859
3084
3108
3159
3161
3163
3166
3178
3300
3387
3434
6548
6569
6601
6602
6605
6606
6608
6610
6796
6859
6869
6903
6904
7029
7223
7244
7269
7347
7360
7383
7397
7402
7403
7404
7414
7686
7938
8096
8461
8462
8481
8486
8574
8599
8603
8604
8605
8611
13633
13651
13652
14852
15665
16258
16262
16266
16273
17862
17870
18349
18578
19824
19826
20813
20827
20829
20831
20834
22780
22786
22825
22980
23269
24011
24037
24044
24217
24244
24245
24248
24273
25122
25142
25145
25259
25304
25396
25398
25612
25655
25663
25664
25901
25906
25909
25914
25917
25920
25921
25923
25924
25925
25943
25944
25971
25974
25978
26016
26019
26040
26041
26051
26063
26064
26067
26068
26101
26103
26111
26127
26169
26171
26172
26186
26193
26211
26237
26252
26253
26254
26255
26257
26259
26261
26263
26266
26267
26301
26316
26317
26330
26331
26382
26415
26422
26423
26426
26431
26432
26442
26444
26473
26824
26856
26871
26889
27075
27076
27077
27155
27162
27165
27200
27229
27261
27334
27335
27339
27367
27411
27412
27413
27421
27431
27491
27493
27503
27504
27558
27559
27655
27660
27751
27792
27826
27978
27991
28001
28017
28032
28050
28098
28114
28274
28294
28411
28412
28495
28714
29040
29151
29295
30109
30112
30277
30278
31175
31272
31508
31547
31625
31642
31679
31745
31775
31848
31876
31890
31893
31902
31903
31952
31964
31969
31980
32263
32266
32276
32299
32956
32958
33148
33184
33327
33423
33440
33443
33457
33458
33519
33520
33522
33526
33585
34374
34440
34748
35024
35486
35557
35564
35583
35584
35771
37554
37557
38835
38836
38892
38895
38903
38908
38953
38970
38973
38983
39037
39041
39094
39099
39114
39116
39165
39177
39181
39188
39221
39224
39389
39996
41907
41929
41963
41986
41990
41992
41999
42059
43237
43343
43454
43468
43471
43490
43511
43526
43528
43544
43564
43574
43585
43613
43626
43628
43657
43661
43664
43671
43674
43678
43684
43688
43690
43718
43737
43754
43756
43757
43761
43772
43775
43807
43823
43830
43838
43885
43886
43887
43910
43924
43926
43932
43934
43937
43953
43954
43966
43997
43998
43999
44008
44019
44029
44036
44039
44081
44132
44141
44154
44206
44207
44212
44214
44220
44234
44248
44256
44265
44301
44303
44337
44395
44403
44411
44413
44424
44431
44433
44439
44564
44597
44607
44608
44645
44660
44669
44673
44677
44690
44713
44720
44756
44759
44760
44810
44818
44910
45018
45032
45073
45075
45103
45214
45222
45236
45373
45450
45471
45473
45480
45534
45537
45568
45577
45612
45797
45798
45828
45833
45920
45921
45953
45961
45967
45968
45988
45993
45999
46028
46056
46068
46082
46187
46196
46252
46452
46458
46459
46600
46740
46764
46879
46880
47541
47577
47590
47609
47622
47656
47674
47735
47759
47761
47764
47853
47863
47869
47871
47890
47907
47918
47919
47969
47970
47986
47993
48006
48010
48011
48013
48016
48080
48081
48102
48111
48114
48124
48189
48208
48257
48265
48272
48322
48325
48333
48352
48358
48368
48392
48424
48428
48438
48441
48446
48447
48451
48466
48467
48469
48524
48527
48529
48532
48534
48535
48537
48542
48545
48550
48551
48582
48585
48590
48600
48630
48633
48635
48654
48660
48665
48673
48677
48684
48689
48691
48701
48703
48704
48708
48715
48725
48728
48738
48759
48783
48787
48792
48795
48798
48799
48823
48829
48841
48846
48882
48887
48892
48924
48937
48938
48943
48946
48951
48952
48960
48962
49009
49059
49061
49063
49064
49072
49089
49106
49111
49162
49165
49168
49170
49192
49203
49222
49226
49233
49353
49369
49557
49593
49595
49599
49601
49611
49706
49741
49742
49750
49785
49786
49827
49830
49832
49833
49834
49968
49969
49973
49983
49986
49987
[ 272 ]
2899
2998
3087
3090
3091
3107
3179
3305
6607
6609
7178
7195
8591
8593
8594
8596
8598
8602
8613
14857
15660
15664
16259
16263
16265
16674
22784
23968
24237
24246
25033
25143
25186
25303
25598
25700
25705
25937
25938
25975
26018
26042
26043
26045
26048
26058
26062
26077
26081
26082
26109
26123
26125
26170
26173
26176
26209
26226
26232
26238
26250
26258
26264
26265
26298
26300
26333
26412
26424
26427
26428
26499
26825
26851
26852
26854
26855
26861
26864
26874
26885
27161
27164
27188
27189
27236
27336
27420
27496
27505
27508
27642
27654
27656
27996
28030
28097
28115
28123
28318
28364
28383
28903
29039
29208
30044
30704
31537
31824
31894
31896
31898
31951
32365
32921
32942
32943
32949
33000
33025
33074
33100
33124
33179
33186
33187
33234
33268
33278
33281
33331
33416
33418
33420
33421
33422
33434
33436
33456
33460
33518
33521
33524
33525
33527
33534
33549
33575
33656
34609
34619
34787
35014
35025
35464
35509
35750
35770
35815
37453
37558
37559
38044
38698
38792
38837
38875
38890
39025
39026
39036
39047
39069
39091
39102
39103
39141
39193
39211
39213
39218
39222
39223
39247
39252
39405
39967
39997
40000
40006
40203
40206
40207
40210
41169
41871
41994
41995
43320
43346
43473
43506
43547
43561
43565
43566
43569
43577
43582
43583
43594
43608
43614
43615
43616
43648
43650
43652
43662
43663
43681
43691
43692
43708
43722
43723
43724
43725
43726
43742
43747
43752
43821
43825
43826
43827
43837
43894
43923
43925
43931
43940
43941
43942
43943
43955
44000
44026
44027
44080
44091
44105
44117
44134
44136
44137
44178
44211
44215
44236
44257
44258
44261
44279
44281
44296
44430
44529
44533
44546
44550
44566
44567
44568
44571
44588
44589
44610
44639
44646
44648
44650
44651
44679
44685
44687
44689
44692
44694
44711
44712
44725
44762
44789
44796
44797
44817
44849
44850
44906
44907
44908
44909
44912
44913
44942
44952
44956
44967
44987
44997
45019
45020
45153
45194
45210
45211
45212
45216
45220
45228
45255
45256
45475
45502
45536
45538
45551
45571
45575
45644
45802
45813
45821
45894
45927
45966
46065
46069
46083
46084
46131
46191
46207
46210
46449
46451
46456
46725
46739
46741
46765
46778
46781
46871
47528
47559
47617
47626
47640
47666
47689
47699
47703
47706
47733
47736
47765
47770
47839
47849
47855
47856
47864
47867
47888
47892
47894
47896
47904
47923
47930
47952
47971
47979
47987
47988
48012
48073
48100
48103
48106
48143
48155
48182
48183
48184
48194
48195
48200
48206
48223
48280
48281
48283
48287
48323
48328
48336
48356
48362
48364
48376
48383
48386
48391
48394
48397
48413
48420
48436
48439
48461
48470
48498
48513
48533
48552
48574
48614
48621
48628
48650
48659
48661
48663
48672
48687
48688
48696
48698
48702
48706
48709
48713
48719
48720
48732
48734
48735
48736
48752
48761
48780
48784
48786
48803
48831
48834
48840
48842
48849
48863
48867
48883
48890
48955
48957
48963
48966
48967
48968
48973
49026
49034
49057
49062
49067
49069
49074
49075
49076
49086
49095
49105
49113
49114
49142
49151
49167
49171
49180
49181
49190
49193
49195
49198
49207
49209
49213
49214
49227
49228
49230
49231
49246
49249
49370
49372
49394
49476
49519
49587
49592
49600
49609
49610
49624
49625
49676
49696
49705
49709
49715
49740
49766
49775
49781
49790
49825
49828
49869
49900
49933
49959
49961
49971
49976
[ 273 ]
2771
8597
20836
22762
25144
25254
25939
25940
26022
26079
26124
26135
26142
26149
26198
26199
26219
26231
26236
26240
26411
26516
26832
26853
26901
27190
27192
27199
27235
27247
27499
27509
27512
27513
27519
27521
27526
27527
27758
27761
28080
28087
28404
28473
30512
30688
30695
31295
31417
31449
31815
31968
31984
33034
33180
33185
33229
33233
33251
33271
33279
33284
33410
33425
33447
33452
33468
33471
33567
33579
33580
33685
34375
34415
34499
34537
34569
34717
34718
34744
34786
34817
35018
35044
35394
35463
35655
35837
37555
37641
38045
38046
38233
38238
38537
38842
38843
38889
38891
38991
38993
38996
39045
39046
39075
39079
39084
39090
39095
39118
39143
39184
39393
39394
39397
39527
39639
39803
39960
39966
39989
39993
39994
40003
41996
43202
43509
43568
43576
43597
43598
43599
43600
43606
43679
43683
43689
43695
43698
43702
43704
43705
43711
43713
43714
43717
43732
43735
43736
43739
43751
43822
43832
43834
43890
43939
43951
43961
43965
44002
44012
44014
44050
44092
44096
44098
44111
44177
44240
44241
44260
44276
44429
44440
44441
44532
44534
44539
44548
44557
44558
44559
44562
44572
44582
44590
44636
44638
44649
44654
44684
44697
44723
44727
44736
44768
44793
44795
44801
44803
44805
44851
44901
44911
44984
44998
45111
45155
45159
45187
45204
45225
45227
45550
45823
45825
45827
45831
45832
46038
46048
46071
46078
46098
46130
46218
46219
46381
46457
46485
46783
47530
47569
47571
47575
47618
47625
47641
47667
47672
47687
47705
47731
47760
47768
47771
47772
47775
47841
47857
47866
47882
47901
47903
47913
47916
47931
47940
47943
47960
47968
47972
47982
48092
48093
48116
48118
48142
48145
48180
48193
48197
48201
48326
48338
48354
48359
48372
48375
48402
48414
48435
48437
48450
48455
48458
48479
48487
48488
48489
48496
48509
48519
48602
48605
48611
48612
48615
48616
48648
48658
48662
48669
48670
48693
48694
48729
48762
48775
48776
48778
48832
48884
48888
48891
48956
48958
48972
48977
49001
49002
49006
49007
49010
49011
49013
49021
49028
49029
49033
49043
49050
49055
49056
49058
49065
49066
49070
49087
49115
49129
49130
49133
49138
49139
49141
49161
49173
49174
49179
49191
49196
49205
49211
49216
49218
49220
49237
49326
49352
49356
49374
49383
49386
49406
49413
49437
49442
49456
49482
49499
49500
49517
49518
49520
49566
49569
49585
49590
49612
49615
49617
49642
49663
49666
49677
49686
49695
49699
49704
49712
49732
49734
49735
49739
49754
49903
49934
49947
49962
49967
49972
[ 274 ]
26087
26118
26120
26131
26239
26244
27226
27263
27514
27522
27983
30706
31210
32289
32914
33004
33005
33195
33252
33272
33273
33280
33287
33397
33433
33481
33559
33617
33650
33655
33670
33682
33684
34378
34423
34447
34486
34535
34567
34568
34570
34610
34614
34709
34734
34746
34750
34780
34790
34809
34831
35013
35017
35163
35319
35471
35612
35658
35848
35851
37573
37587
37629
37631
37633
37634
37642
37644
37647
37655
38252
38605
38813
38824
38827
38831
38834
38841
38846
38862
38874
38878
38931
38933
38934
38999
39006
39048
39071
39080
39216
39408
39504
39525
39532
39546
39547
39550
39573
39660
39770
39961
39964
40007
40033
40046
40047
40127
40136
40139
43529
43553
43573
43575
43579
43581
43605
43682
43700
43709
43720
43721
43733
43748
43750
43835
43958
44009
44059
44088
44093
44104
44238
44254
44272
44544
44545
44551
44556
44560
44625
44631
44647
44748
44749
44767
44788
44792
44802
44814
44902
44941
44999
45152
45192
45195
45196
45197
45203
45535
45549
45826
46483
46486
46506
46547
46578
46721
46743
46888
46889
47537
47539
47710
47778
47780
47814
47819
47820
47823
47838
47845
47858
47885
47910
47935
47939
47951
48009
48097
48158
48198
48199
48286
48363
48379
48396
48406
48409
48422
48433
48434
48448
48453
48501
48505
48518
48603
48610
48624
48627
48632
48640
48652
48653
48664
48667
48668
48699
48764
48766
48767
48833
48835
49005
49022
49038
49040
49044
49047
49052
49081
49083
49127
49135
49148
49149
49155
49156
49159
49185
49186
49197
49219
49229
49234
49236
49296
49313
49320
49321
49330
49342
49354
49355
49358
49363
49366
49382
49385
49388
49393
49399
49417
49418
49421
49424
49440
49443
49477
49478
49483
49487
49489
49504
49508
49509
49542
49551
49552
49553
49554
49563
49564
49565
49581
49584
49616
49630
49631
49646
49652
49655
49661
49667
49668
49726
49730
49731
49770
49807
49836
49847
49890
49898
[ 275 ]
26112
26119
26243
27524
27525
33093
33096
33097
33109
33254
33256
33628
33657
33666
33667
33669
33671
33672
33676
33686
33691
33694
34389
34410
34420
34432
34442
34448
34450
34458
34474
34476
34503
34509
34512
34513
34514
34524
34536
34562
34571
34572
34575
34602
34607
34620
34634
34693
34694
34704
34706
34715
34730
34737
34738
34745
34761
34781
35130
35295
35300
35469
35592
35638
35935
37574
37613
37616
37623
37638
37639
37640
37646
38803
38833
38850
38864
38866
38932
38951
38990
39245
39463
39464
39500
39507
39530
39531
39554
39555
39556
39570
39571
39600
39696
39719
39720
39737
39738
39754
39771
39772
39774
39775
39797
39959
39963
39968
39969
39970
39986
40017
40024
40112
40146
41989
43554
43703
43712
43716
43960
44011
44058
44061
44087
44090
44097
44253
44541
44552
44555
44573
44624
44634
44635
44703
44764
44773
44774
44777
44779
45022
45202
46037
46466
46481
46482
46505
47711
47713
47714
47723
47727
47729
47779
47817
47974
48119
48163
48165
48173
48495
48517
48607
48609
48623
48625
48984
48988
48993
48996
49003
49004
49014
49015
49020
49023
49024
49027
49036
49045
49046
49048
49049
49051
49122
49136
49150
49178
49212
49288
49289
49295
49309
49310
49311
49312
49316
49317
49322
49323
49327
49328
49329
49337
49364
49365
49377
49407
49409
49410
49415
49416
49420
49423
49429
49441
49448
49451
49452
49454
49466
49479
49484
49485
49488
49490
49492
49493
49494
49512
49543
49573
49576
49577
49578
49582
49613
49619
49636
49643
49645
49647
49654
49658
49662
49670
49671
49680
49718
49728
49736
49794
49799
49818
49837
49842
49875
49882
49886
49888
49889
49899
[ 276 ]
33136
33625
33627
33635
33646
33688
34386
34406
34409
34427
34434
34465
34479
34487
34488
34529
34530
34531
34548
34583
34585
34601
34617
34618
34638
34659
34720
34774
34783
34796
34799
34800
34814
35122
35934
35938
37617
37620
37628
37648
37649
38847
38848
38858
38869
39051
39055
39082
39465
39479
39505
39509
39535
39542
39545
39558
39575
39585
39637
39664
39701
39705
39722
39723
39735
39753
39760
39769
39773
39783
39933
39939
39972
40016
40095
40116
40125
40194
43556
44574
44578
44765
44776
44778
45001
45005
45198
46470
46498
46501
46719
47721
47726
47777
47782
47786
47808
47821
48161
48164
48403
48491
48503
48768
48985
48994
49016
49019
49257
49258
49276
49277
49280
49287
49300
49301
49305
49306
49318
49331
49390
49411
49427
49428
49447
49467
49472
49491
49511
49515
49516
49580
49628
49659
49660
49724
49857
[ 277 ]
33661
34428
34493
34543
34546
34584
34654
34657
34658
34679
34680
34696
34725
34754
34767
34792
35944
36557
38628
38662
38853
39428
39439
39443
39446
39447
39466
39482
39485
39486
39495
39510
39512
39513
39519
39521
39540
39541
39543
39581
39583
39584
39586
39598
39599
39603
39615
39621
39689
39693
39695
39713
39729
39756
39757
39759
39782
39923
39937
39940
39974
39975
40013
40014
40020
40049
40056
40097
40130
40131
40138
40153
44775
45199
46441
46500
47725
47787
47788
47796
47805
47809
47810
47811
47962
49267
49274
49464
49495
49885
50000
[ 278 ]
34224
34470
34545
34555
34592
34662
34682
34698
34755
34757
34795
34797
39416
39427
39433
39435
39436
39437
39442
39468
39469
39478
39487
39496
39588
39589
39597
39611
39694
39708
39764
39765
39767
39768
39901
39924
39941
39954
40117
40122
40147
47795
47797
47802
49262
49272
49470
49471
[ 279 ]
38651
39426
39434
39467
39470
39489
39610
39616
39622
39740
39953
40121
46442
47800
47804
47806
49263
[ 280 ]
39415
39420
39421
39424
39491
39605
39945
39950
[ 281 ]
39423
39488
39606
39608
39942
52943
[ 282 ]
39607
39949
[ 288 ]
9007
[ 289 ]
9001
[ 290 ]
9225
[ 291 ]
9003
9224
9254
[ 292 ]
6011
8988
[ 293 ]
3771
3788
3789
3799
9096
13302
24909
[ 294 ]
3682
3781
3785
3786
3787
3794
3798
3828
3853
9252
9822
10441
10599
19742
19770
45348
[ 295 ]
3722
3741
3779
3782
10434
10435
10448
13298
19757
19758
24586
24587
24595
24624
24627
24686
24734
24773
24966
45342
45345
[ 296 ]
1400
2941
3627
3723
3724
3731
3772
3774
6013
9577
9754
9823
9834
10394
10408
10409
10437
10451
13295
13674
19621
19755
19778
20983
24313
24320
24411
24471
24476
24477
24486
24585
24594
24597
24599
24607
24613
24614
24616
24617
24628
24636
24637
24641
24646
24673
24681
24687
24764
24801
24803
24891
24896
45340
45346
45381
45382
45409
45410
45411
[ 297 ]
2938
2939
3732
3733
3822
3910
3914
3915
6592
8623
9620
9628
9688
9786
9816
10381
10428
10429
10430
10432
10433
13272
13354
13675
13935
14071
15056
19843
20784
24290
24408
24482
24501
24576
24581
24582
24590
24593
24598
24600
24601
24608
24610
24612
24615
24629
24634
24639
24645
24648
24672
24677
24680
24716
24741
24762
24767
24799
24800
24871
24873
24879
24890
24892
24940
24953
24957
24965
25173
25175
25206
25243
41894
45404
45412
45777
48067
[ 298 ]
1010
1436
2128
2847
2849
2850
2937
3203
3204
3897
6985
7728
8162
8363
9866
10411
10418
13239
13676
16223
17800
18686
18687
19449
19739
20280
20889
20937
21495
22189
22190
22193
22198
24296
24403
24404
24412
24418
24419
24466
24469
24570
24577
24580
24606
24630
24653
24663
24693
24694
24699
24714
24718
24752
24754
24771
24777
24798
24823
24825
24878
24884
24886
24941
24943
24952
24979
24980
24981
24983
24984
25012
25017
25068
25070
25167
25174
25208
25241
25242
25278
25501
26010
26346
26688
27014
27031
27395
27457
29521
41895
45128
45129
45168
45312
45335
45336
45337
45338
45361
45379
45394
45405
45637
45856
45884
45941
45976
45985
46165
46167
46169
46171
46175
46234
47550
47596
47597
48060
48212
48318
48320
48910
[ 299 ]
1004
1005
1071
1409
1531
1644
2836
2838
2839
2881
2953
2996
3008
3659
3888
6590
6758
6767
6983
7867
7957
8139
8365
9584
9694
12822
13044
13168
15379
15633
15635
16336
16351
18353
19026
19837
22199
23260
24274
24413
24415
24416
24417
24444
24449
24464
24498
24571
24575
24591
24654
24692
24695
24697
24724
24797
24824
24826
24850
24880
24882
24885
24944
24947
24949
24951
24964
24982
25008
25013
25015
25018
25052
25069
25074
25078
25086
25099
25134
25138
25165
25166
25168
25212
25239
25246
25505
25510
25513
25514
26003
26005
26007
26347
27034
27083
27399
27450
27468
29568
39205
41896
41897
41957
43534
43851
43856
44343
44346
45086
45313
45324
45369
45387
45388
45393
45400
45403
45413
45427
45456
45600
45608
45617
45772
45857
45860
45863
45865
45870
45881
45897
46173
46235
46927
47546
47547
47548
47556
48037
48039
48055
48059
48066
48249
48293
48750
48919
48932
[ 300 ]
991
1022
1065
1148
2800
3007
3034
3078
3153
5083
6579
6589
6724
6762
6763
6765
6766
6773
7231
7468
7682
7727
7865
7935
7946
7952
8352
8364
8367
8377
8521
8522
13522
13534
15039
15634
16286
16333
16341
16343
16349
18352
18542
20953
23324
24243
24309
24322
24323
24353
24372
24436
24453
24457
24460
24605
24652
24655
24662
24696
24726
24727
24786
24854
24855
24856
25002
25005
25007
25010
25014
25019
25020
25041
25057
25073
25085
25091
25096
25115
25118
25135
25159
25169
25172
25177
25179
25220
25516
25517
25992
25997
26002
26275
26279
26287
26288
26343
26356
26456
26594
27118
27397
27447
27452
30116
39108
39111
39179
39204
39207
41906
43537
43630
43777
43848
43855
43861
43988
44344
44357
45063
45077
45142
45162
45165
45173
45174
45241
45264
45278
45297
45304
45375
45377
45389
45390
45423
45452
45453
45468
45469
45588
45847
45888
45889
45905
45910
45911
45935
45937
45964
46172
46236
46237
46884
47600
47604
47606
47697
47744
47746
48019
48023
48029
48034
48035
48053
48057
48061
48062
48064
48065
48070
48072
48210
48214
48215
48227
48241
48247
48251
48253
48292
48295
48296
48315
48317
48561
48749
48824
48857
48862
[ 301 ]
2786
2797
2798
2813
2814
2817
2837
2840
2845
2886
2988
3003
3009
3023
3025
3044
3101
3102
3289
6581
6700
7234
7467
7481
7934
7956
8371
8372
8470
8472
8526
13171
13653
15785
16254
17149
19025
19819
20997
21903
21910
24431
24437
24438
24441
24787
24843
24847
24849
24888
24991
24992
25003
25004
25021
25029
25040
25055
25064
25065
25109
25125
25130
25136
25152
25153
25156
25158
25160
25178
25180
25183
25192
25193
25213
25226
25444
25624
25677
25969
25970
26036
26037
26066
26070
26090
26274
26284
26302
26311
26314
26341
26845
27078
27114
27348
27373
27459
28130
28314
30114
39106
43466
43515
43773
43782
43785
43809
43812
43852
43858
43860
43872
44120
44356
45035
45057
45100
45130
45131
45137
45163
45166
45233
45243
45277
45281
45288
45289
45295
45325
45363
45370
45374
45447
45455
45464
45470
45605
45607
45848
45861
45873
45886
45895
45896
45900
45909
45912
45939
45969
45973
45984
46185
46201
46883
46905
47543
47554
47557
47579
47589
47593
47605
47607
47654
47659
47664
47679
47681
47741
47876
47920
47921
48003
48005
48027
48028
48031
48043
48046
48051
48068
48112
48228
48238
48243
48244
48269
48294
48308
48314
48316
48330
48331
48546
48547
48560
48588
48598
48743
48745
48751
48755
48757
48820
48848
48861
48904
48908
48925
48926
48930
48931
49534
[ 302 ]
935
2772
2788
2789
2793
2799
2808
2809
2812
2819
2820
2842
2844
2990
3022
3030
3033
3157
3172
6756
6879
6882
7232
7945
8028
8464
8489
8520
13598
13608
13650
16348
18397
18603
18613
24440
24454
24994
25030
25032
25035
25063
25090
25092
25095
25113
25120
25123
25128
25129
25131
25132
25147
25148
25155
25163
25181
25182
25187
25191
25194
25196
25197
25202
25223
25248
25249
25256
25258
25376
25488
25922
25927
25928
25931
26060
26065
26071
26089
26092
26096
26139
26293
26294
26296
26313
26433
27185
27340
27350
27445
28282
32950
32953
39208
39217
39995
41912
42001
43486
43488
43523
43524
43542
43586
43617
43653
43755
43763
43764
43765
43768
43786
43808
43811
43829
43842
43854
43871
43935
44126
44224
44813
45109
45139
45143
45144
45145
45231
45234
45247
45257
45276
45282
45287
45298
45326
45371
45372
45553
45835
45841
45844
45850
45852
45907
45913
45930
45933
45944
45965
45970
45971
46066
46189
46202
46230
46253
46604
46904
47553
47580
47587
47628
47642
47677
47678
47680
47684
47696
47698
47702
47739
47749
47750
47751
47874
47875
47889
48001
48007
48014
48025
48042
48044
48045
48082
48088
48107
48108
48109
48113
48226
48229
48232
48235
48236
48262
48267
48268
48273
48275
48297
48303
48304
48309
48312
48334
48423
48444
48445
48559
48584
48644
48645
48678
48681
48682
48717
48718
48741
48754
48790
48800
48805
48807
48815
48816
48852
48853
48859
48921
48922
48940
48941
48942
48944
48948
48954
49533
49556
49559
49605
49606
49608
49749
49752
49978
49985
[ 303 ]
2760
2774
2782
2791
2792
2795
2802
2806
2991
3083
3092
3158
6884
7221
7240
7367
8468
13646
24995
25031
25038
25039
25114
25146
25214
25255
25910
25919
25972
26038
26039
26049
26061
26073
26097
26100
26260
26295
26297
26315
26850
27460
27502
28126
33274
39113
39140
39178
39180
43496
43525
43531
43541
43659
43660
43677
43694
43762
43776
43813
43816
43819
43824
43831
43843
43846
43945
44133
44190
44208
44222
44266
44335
44693
44798
44808
44996
45029
45031
45034
45112
45156
45182
45185
45186
45213
45217
45219
45221
45230
45235
45237
45248
45472
45481
45576
45814
45817
45834
45836
45837
45838
45846
45874
45928
45945
46151
46873
46875
46882
46885
47535
47567
47574
47583
47585
47586
47629
47643
47660
47665
47673
47675
47685
47692
47695
47740
47748
47854
47877
47878
47879
47880
48002
48008
48018
48020
48024
48078
48083
48084
48091
48101
48196
48263
48264
48274
48277
48278
48282
48290
48311
48366
48442
48465
48472
48486
48599
48629
48646
48647
48656
48676
48692
48695
48705
48707
48742
48753
48779
48782
48789
48791
48793
48796
48797
48817
48818
48821
48822
48827
48828
48830
48836
48843
48845
48847
48871
48872
48874
48875
48879
48886
49088
49108
49110
49112
49164
49166
49188
49201
49204
49528
49530
49560
49591
49594
49602
49607
49784
49835
49982
[ 304 ]
933
2761
2763
2765
2773
2777
2778
2790
2805
2810
7251
8600
24851
25023
25149
25150
25185
25918
26044
26052
26053
26084
26088
26121
26126
26133
26140
26144
26430
33432
33435
33459
34438
38243
39092
39115
39183
41875
41997
41998
43507
43530
43548
43549
43563
43570
43651
43680
43693
43706
43820
43936
43944
43968
44016
44264
44278
44593
44698
44791
44807
44809
44847
44848
45017
45071
45188
45209
45218
45223
45253
45254
45285
45286
45474
45476
45477
45554
45816
45824
45843
45919
45923
45924
45931
45932
46051
46450
46488
46874
47561
47562
47576
47584
47662
47668
47670
47683
47686
47688
47732
47734
47738
47755
47774
47872
47905
47909
47998
48090
48094
48099
48181
48204
48234
48284
48324
48337
48357
48367
48452
48463
48474
48530
48575
48620
48631
48636
48657
48721
48730
48737
48760
48781
48788
48819
48837
48838
48839
48844
48864
48865
48868
48870
48880
48881
48889
48950
49053
49144
49158
49172
49189
49206
49232
49359
49360
49368
49414
49425
49431
49432
49438
49475
49498
49523
49525
49531
49532
49535
49555
49558
49561
49568
49589
49603
49604
49984
[ 305 ]
2764
2769
2775
2781
26046
26047
26083
26085
26104
26110
26145
27320
28088
34416
34430
34443
34773
37622
38844
38860
39068
39088
39097
39212
40002
40004
43508
43510
43545
43567
43603
43707
43836
44268
44277
44553
45154
45157
45191
45193
45208
45226
45818
46489
46494
46872
47536
47560
47568
47570
47669
47671
47690
48222
48468
48604
48617
48618
48642
48671
48724
48763
48785
48869
48978
49025
49039
49109
49145
49157
49194
49221
49371
49373
49430
49435
49436
49524
49536
49540
49545
49547
49575
49588
49637
49753
49767
[ 306 ]
2767
26086
26134
26241
32946
34417
34422
34429
34431
34485
34528
37635
38838
39083
39085
39395
39965
43552
43715
44542
44543
44794
45004
45158
45190
45205
45207
45224
45252
45925
45926
46495
47540
47572
47728
47773
47781
47818
48095
48360
48500
48622
48638
48641
48765
48777
48885
49031
49137
49176
49282
49283
49284
49285
49314
49357
49367
49419
49426
49433
49434
49439
49473
49474
49480
49502
49521
49522
49526
49541
49544
49548
49562
49567
49570
49572
49574
49639
49649
49672
[ 307 ]
33107
33255
33668
33680
33681
33683
34418
34421
34475
34616
37621
38851
38859
38861
39506
39544
39962
40005
40151
44683
45002
46484
46490
46491
47776
48168
48170
48606
48626
48637
49315
49412
49422
49444
49445
49450
49455
49457
49458
49459
49460
49501
49507
49549
49550
49571
49638
49648
49650
49673
49674
49892
49948
[ 308 ]
33679
33689
34414
34467
34615
39081
39508
39528
39579
39601
43551
46496
47785
49286
49294
49302
49446
49461
49462
49463
49496
49579
[ 309 ]
37626
37637
38857
39511
39522
39602
39957
47784
49304
49469
[ 310 ]
39690
46499
[ 311 ]
39414
39617
[ 312 ]
39419
39490
39955
39956
[ 321 ]
9006
[ 323 ]
9029
[ 327 ]
1163
2726
2727
24588
24589
24704
24733
24910
24976
45349
[ 328 ]
1391
1399
1665
2115
2596
2629
2665
24609
24678
24683
24732
24768
24820
24956
24968
24977
25244
45347
45380
45383
[ 329 ]
1392
1396
1537
1538
1645
1652
1668
2605
2611
2621
2625
2657
2732
3725
3748
9581
13041
15813
24409
24443
24447
24579
24583
24631
24635
24638
24640
24679
24682
24685
24688
24689
24691
24701
24705
24706
24707
24715
24717
24719
24729
24730
24821
24836
24860
24868
24870
24958
24959
24969
24973
24978
25048
25053
43798
43800
43805
43849
45311
45320
45331
45384
46164
47598
47743
[ 330 ]
956
960
1000
1002
1008
1009
1011
1013
1023
1093
1094
1138
1162
1166
1167
1393
1395
1456
1532
1533
1567
1658
1674
2129
2130
2651
2653
2745
2746
2756
2757
3916
14464
23261
24420
24445
24446
24462
24470
24578
24611
24633
24698
24708
24769
24770
24840
24859
24867
24869
24921
24922
24930
24937
24945
24950
24954
24955
24987
25079
25081
25102
25157
25238
25245
26006
30668
43795
43857
45170
45318
45322
45323
45376
45385
45401
45794
45862
47595
47601
47602
48049
[ 331 ]
961
962
990
1006
1015
1072
1103
1160
1168
1184
1382
1402
1407
1408
1417
1437
1458
1477
1479
1480
1493
1505
1515
1523
1536
1539
1568
2658
2710
2754
16338
24421
24425
24426
24442
24448
24458
24463
24465
24656
24785
24841
24845
24857
24927
24946
24963
24970
25016
25045
25050
25061
25082
25100
25176
25209
25237
25388
26344
26345
39206
43793
43803
45169
45172
45176
45179
45260
45261
45263
45268
45269
45306
45307
45309
45315
45319
45362
45386
45402
45406
45610
45795
45854
45887
47551
47594
47599
47652
48211
48213
48246
48248
48825
[ 332 ]
972
992
998
999
1001
1012
1061
1068
1069
1101
1116
1150
1185
1284
1300
1364
1406
1440
1478
1499
1541
1569
1629
1631
1639
2748
2759
3042
16335
16342
24424
24427
24428
24456
24728
24853
24948
24962
25044
25046
25067
25088
25089
25133
25200
25210
25211
25216
25218
25230
25490
25491
25496
26093
26094
26283
26285
26286
27342
39107
39203
43810
43847
45167
45180
45240
45272
45274
45296
45299
45302
45316
45602
45603
45858
45859
45899
45934
45940
46178
47647
47745
48004
48048
48052
48216
48217
48218
48225
48242
48245
48310
[ 333 ]
903
938
965
994
1020
1025
1040
1059
1104
1128
1152
1153
1169
1170
1174
1197
1318
1438
1439
1443
1540
2816
2841
3004
8242
24842
24997
25027
25028
25042
25043
25054
25056
25072
25104
25111
25161
25162
25217
25222
25224
25228
25492
25493
25495
26095
27343
27344
27345
27347
27349
39112
39200
39202
43781
43783
43788
43806
43815
45033
45164
45175
45242
45258
45259
45265
45266
45279
45300
45301
45604
45906
45916
45936
45938
45942
47552
47581
47653
48022
48026
48047
48220
48237
48305
48746
[ 334 ]
925
926
927
928
931
932
934
952
968
1026
1030
1031
1032
1058
1105
1175
1176
1256
1257
1264
1604
2785
2787
2989
7230
8463
24429
24432
24433
24852
24993
24996
25022
25024
25025
25034
25105
25112
25184
25199
25250
25252
25253
25494
26072
26080
27346
39182
43498
43499
43779
43784
43817
43818
43853
45215
45244
45245
45246
45294
45303
45853
45902
45903
45914
45915
45917
45918
45943
47661
48032
48086
48087
48089
48104
48219
48230
48276
48643
48945
[ 335 ]
908
929
930
949
1172
1193
1269
24430
24434
24452
25026
25110
25215
25907
25908
26074
26076
39186
39187
43532
44142
44812
45161
45229
45820
45842
47582
47691
47873
48085
48271
48723
48873
48953
49529
[ 336 ]
2762
2766
2780
2803
2804
2811
26054
26098
26099
26185
26290
31975
43546
43753
45249
45250
45819
47558
47573
47663
47682
48221
48634
48876
48877
48878
49901
[ 337 ]
2768
2770
2776
2784
39185
39526
45189
45251
46493
48096
48619
49131
49325
49362
49497
[ 338 ]
2779
43550
43580
46492
49503
49546
[ 339 ]
2783
49307
49481
[ 354 ]
2567
[ 355 ]
2568
2570
2579
2580
[ 356 ]
2569
2571
2584
[ 357 ]
2072
2438
2440
2468
2523
2527
2540
2541
2560
2562
2564
2583
2587
[ 358 ]
2071
2073
2074
2434
2442
2444
2483
2521
2534
2536
2548
2550
2553
2555
2563
2565
2572
2573
2582
2585
2586
2639
2641
2664
[ 359 ]
1751
1811
1969
1972
1973
1988
2063
2066
2070
2090
2091
2092
2419
2423
2427
2445
2449
2457
2459
2470
2520
2538
2542
2588
2595
2613
2631
2633
2634
2638
2640
2642
2647
24690
24822
24913
24914
45341
[ 360 ]
1096
1653
1669
1673
1733
1749
1803
1827
1856
1867
1918
1954
1955
1974
1984
2016
2018
2068
2087
2095
2428
2473
2485
2490
2506
2516
2528
2532
2539
2543
2591
2592
2593
2597
2614
2616
2617
2618
2646
2717
24684
24703
24864
24919
24960
24967
43797
[ 361 ]
1014
1095
1130
1144
1161
1389
1390
1398
1401
1403
1451
1651
1667
1672
1679
1698
1713
1732
1740
1753
1805
1834
1843
1851
1854
1864
1870
1920
1921
1944
1977
2028
2053
2132
2472
2480
2484
2499
2602
2607
2608
2609
2615
2619
2620
2626
2628
2630
2644
2645
2654
2655
24410
24700
24920
24924
24928
24975
24985
25047
43796
43799
45310
45330
45334
[ 362 ]
955
978
979
980
981
983
984
987
988
989
1003
1007
1097
1137
1139
1140
1142
1143
1164
1199
1378
1380
1388
1397
1418
1421
1426
1427
1454
1467
1496
1516
1521
1522
1528
1529
1623
1646
1649
1664
1671
1675
1677
1681
1699
1704
1707
1710
1712
1724
1728
1729
1736
1737
1741
1747
1754
1756
1780
1802
1804
1830
1840
1857
1903
1905
1915
1919
1965
1966
1967
1980
1982
2038
2039
2041
2045
2046
2097
2114
2135
2196
2216
2481
2600
2603
2604
2606
2610
2622
2627
2649
2650
2656
2661
2662
2718
2723
2730
2734
2739
2743
24702
24832
24833
24837
24839
24858
24866
24889
24929
24938
24972
25236
45321
45332
45333
45855
[ 363 ]
826
942
973
997
1016
1019
1039
1066
1067
1070
1098
1099
1129
1135
1145
1146
1147
1165
1181
1186
1187
1200
1201
1283
1286
1296
1331
1350
1377
1379
1383
1385
1386
1387
1394
1404
1410
1415
1424
1435
1444
1447
1452
1453
1455
1457
1464
1466
1469
1470
1483
1495
1497
1513
1520
1524
1534
1535
1546
1547
1549
1559
1564
1565
1566
1571
1572
1575
1624
1634
1642
1655
1657
1715
1725
1730
1748
1763
1774
1797
1799
1858
1904
1956
2051
2100
2120
2124
2136
2188
2218
2652
2735
2740
2741
2742
2747
2751
2753
24422
24834
24923
24925
24933
24935
24936
24939
24942
24986
25049
25231
43794
43801
43804
45178
45273
47549
[ 364 ]
585
716
824
957
959
976
995
1017
1024
1038
1063
1077
1100
1102
1107
1112
1123
1124
1125
1151
1154
1155
1158
1182
1183
1188
1189
1198
1202
1204
1208
1260
1282
1289
1290
1293
1303
1311
1317
1321
1325
1328
1329
1337
1343
1349
1351
1352
1365
1367
1371
1381
1384
1405
1413
1419
1420
1430
1432
1441
1445
1448
1449
1461
1463
1481
1491
1492
1498
1502
1504
1508
1509
1512
1518
1542
1557
1558
1570
1573
1574
1586
1592
1596
1597
1601
1609
1621
1622
1625
1628
1630
1632
1633
1638
1640
1643
1648
1656
1719
1757
1771
1790
1791
1796
2112
2127
2709
2749
2750
2752
24827
24828
24846
24988
24989
24990
25080
25108
25229
45177
45181
45238
45239
45262
45317
45329
45898
[ 365 ]
594
599
632
665
902
905
945
948
951
953
963
971
993
996
1021
1035
1037
1048
1062
1064
1076
1114
1115
1117
1120
1121
1122
1127
1156
1173
1177
1178
1179
1180
1190
1191
1206
1207
1209
1217
1275
1276
1277
1292
1295
1299
1304
1320
1326
1334
1345
1346
1358
1362
1368
1372
1375
1376
1411
1412
1429
1431
1484
1500
1501
1506
1511
1525
1544
1556
1587
1589
1590
1591
1593
1595
1606
1610
1614
1615
1635
1636
1637
1689
1759
1769
1792
2125
2126
2142
2150
2755
7229
24848
25106
25221
25225
25227
43533
43780
43802
45275
45280
45293
45305
[ 366 ]
556
709
711
715
904
906
907
911
912
913
923
947
950
964
967
969
1028
1041
1045
1046
1057
1108
1109
1111
1118
1126
1157
1171
1196
1210
1246
1270
1294
1301
1307
1308
1309
1310
1313
1322
1323
1324
1330
1335
1347
1353
1369
1373
1374
1486
1487
1488
1490
1603
1605
1611
1612
1616
1617
1758
1793
24461
25247
43787
43789
45232
45284
[ 367 ]
728
801
802
804
914
916
919
939
970
1027
1033
1042
1052
1195
1211
1213
1240
1241
1252
1258
1261
1278
1315
1319
1348
1485
25251
26075
[ 368 ]
909
915
966
1054
1055
1226
1239
1242
1249
1251
1253
1267
1306
1356
42000
49527
[ 369 ]
917
1243
1266
[ 388 ]
2439
2448
2556
2566
2574
[ 389 ]
2436
2437
2441
2469
2498
2525
2551
2559
2561
2575
2578
[ 390 ]
1910
1961
2059
2060
2061
2065
2354
2416
2431
2435
2443
2465
2467
2493
2501
2502
2503
2504
2505
2508
2509
2524
2530
2533
2535
2537
2552
2577
[ 391 ]
1695
1845
1860
1865
1936
1989
1990
1996
2015
2020
2056
2062
2067
2089
2353
2415
2422
2425
2432
2433
2446
2447
2482
2491
2492
2494
2495
2496
2497
2500
2512
2513
2526
2529
2531
2546
2547
2549
2554
2558
2594
2612
2632
2643
24911
24915
[ 392 ]
1131
1682
1683
1697
1702
1752
1778
1810
1825
1839
1844
1846
1855
1859
1861
1866
1869
1898
1909
1911
1912
1914
1917
1949
1953
1959
1960
1968
1970
1971
1981
1994
2006
2019
2021
2036
2058
2064
2069
2088
2418
2420
2426
2429
2430
2450
2451
2454
2455
2456
2464
2466
2471
2479
2487
2507
2510
2511
2514
2518
2519
2522
2544
2545
2590
2636
2648
2714
2722
2725
24912
24916
24974
[ 393 ]
1083
1530
1663
1666
1670
1676
1680
1685
1686
1687
1692
1696
1705
1711
1720
1734
1735
1742
1743
1745
1762
1807
1809
1812
1826
1842
1847
1853
1868
1871
1887
1897
1907
1913
1933
1937
1945
1948
1952
1957
1958
1963
1964
1975
1976
1983
1985
2002
2013
2017
2026
2037
2084
2085
2086
2093
2098
2099
2116
2117
2131
2133
2230
2421
2458
2460
2474
2475
2476
2477
2478
2488
2515
2517
2589
2598
2601
2623
2635
2663
2666
2668
2719
2724
2728
2733
2738
24838
24862
24863
24865
24961
24971
[ 394 ]
597
612
818
820
982
1084
1089
1090
1132
1425
1450
1473
1474
1475
1553
1654
1659
1660
1661
1684
1700
1709
1714
1726
1731
1739
1744
1746
1755
1789
1798
1801
1806
1808
1814
1817
1818
1819
1821
1823
1829
1848
1850
1852
1889
1899
1922
1935
1940
1942
1943
1947
1950
1951
2000
2007
2023
2024
2027
2042
2052
2083
2104
2105
2106
2107
2108
2109
2118
2122
2134
2184
2186
2187
2192
2193
2195
2197
2201
2217
2229
2333
2367
2452
2453
2461
2486
2599
2659
2660
2670
2671
2713
2716
2720
2721
2729
2731
2736
24423
24830
24831
24861
24918
24931
45308
[ 395 ]
584
596
611
833
977
986
1085
1086
1087
1133
1136
1141
1159
1298
1416
1423
1459
1471
1482
1494
1514
1517
1519
1526
1527
1551
1577
1581
1647
1662
1678
1690
1706
1716
1718
1761
1764
1765
1766
1775
1788
1800
1815
1822
1831
1841
1892
1893
1900
1923
1927
1978
1979
2029
2031
2035
2040
2048
2103
2110
2113
2119
2123
2137
2138
2147
2183
2185
2210
2211
2215
2219
2624
2672
2673
2674
2678
2688
2707
2708
2711
2712
2737
2744
24829
24835
24917
24926
25232
25233
25234
45270
[ 396 ]
588
595
714
717
731
825
827
828
839
974
985
1018
1036
1050
1134
1273
1274
1285
1288
1291
1302
1336
1342
1344
1363
1366
1370
1422
1433
1434
1460
1462
1465
1468
1476
1503
1510
1545
1548
1554
1555
1578
1583
1584
1585
1594
1607
1608
1641
1650
1708
1717
1760
1782
1794
1816
1901
1902
1924
2030
2032
2049
2050
2096
2101
2111
2139
2146
2148
2151
2177
2189
2191
2198
2199
2203
2669
2675
2677
2680
2684
2689
2690
2691
2693
2698
2700
2702
2704
2758
24934
25107
43791
43792
45271
[ 397 ]
580
598
600
614
638
704
707
809
810
823
872
878
900
921
943
946
954
958
975
1049
1060
1106
1110
1113
1119
1149
1192
1203
1205
1214
1216
1229
1230
1272
1327
1332
1339
1340
1341
1360
1414
1489
1507
1543
1563
1588
1602
1619
1620
1626
1627
1768
1770
2102
2121
2140
2144
2149
2157
2174
2221
2224
2342
2679
2683
2701
2706
25235
45267
45290
45292
[ 398 ]
554
555
561
568
581
589
590
617
690
701
706
708
710
718
798
805
806
807
811
812
813
873
875
922
944
1029
1043
1047
1194
1212
1215
1219
1220
1222
1223
1248
1259
1262
1271
1281
1287
1305
1312
1316
1333
1354
1357
1359
1442
1446
1561
1562
1598
1613
1618
2143
2155
2156
2223
2681
26091
43790
45291
[ 399 ]
552
553
557
574
577
592
621
628
696
697
703
719
720
725
726
737
763
769
796
800
803
861
884
910
918
920
1034
1053
1056
1218
1225
1227
1232
1233
1234
1237
1247
1250
1255
1263
1265
1268
1280
1314
1355
1599
1600
[ 400 ]
563
576
593
675
693
735
874
924
1236
1254
1361
[ 401 ]
1235
1238
[ 402 ]
1244
[ 422 ]
2075
2414
2417
2557
2576
2581
[ 423 ]
1694
1997
2076
2078
2352
2356
2391
2399
2409
2411
2413
2424
2489
2637
[ 424 ]
1693
1750
1838
1849
1888
1908
1932
1962
1991
1992
1993
2014
2077
2082
2350
2400
2406
2410
2463
2667
[ 425 ]
383
384
387
389
390
398
399
531
819
1721
1738
1777
1820
1833
1837
1862
1863
1875
1877
1906
1916
1929
1934
1999
2008
2012
2022
2054
2055
2079
2080
2094
2357
2374
2376
2462
[ 426 ]
382
782
784
817
829
831
1082
1088
1472
1688
1691
1701
1723
1727
1776
1779
1781
1784
1813
1824
1828
1836
1872
1883
1884
1894
1896
1926
1931
1938
1939
1941
1946
1995
2001
2003
2005
2009
2011
2025
2043
2047
2057
2081
2172
2202
2228
2326
2331
2334
2335
2337
2338
2359
2363
2371
2373
2394
2686
24932
[ 427 ]
370
386
466
473
610
780
789
814
815
821
830
832
838
887
940
1075
1081
1091
1428
1552
1560
1582
1703
1722
1772
1785
1832
1835
1873
1876
1878
1885
1890
1891
1895
1925
1928
2010
2044
2194
2200
2225
2226
2231
2232
2233
2243
2244
2251
2325
2327
2328
2329
2330
2332
2345
2347
2364
2365
2366
2685
2687
2703
2715
[ 428 ]
506
550
586
605
607
613
636
681
682
732
772
777
779
781
790
791
816
822
835
837
843
844
850
851
859
869
880
891
894
1073
1078
1080
1297
1550
1576
1580
1767
1773
1786
1787
2033
2034
2145
2152
2164
2168
2173
2181
2182
2190
2213
2214
2220
2237
2242
2253
2322
2340
2346
2348
2368
2676
2694
2695
[ 429 ]
477
480
505
534
546
547
578
582
583
601
602
603
604
606
633
637
639
671
680
683
684
685
686
687
705
713
733
738
739
778
792
797
836
862
870
881
888
889
890
898
899
901
1044
1051
1079
1795
2141
2154
2178
2179
2204
2205
2212
2235
2238
2239
2240
2241
2343
2344
2692
2696
2699
2705
[ 430 ]
476
543
565
569
575
579
616
618
640
657
663
689
691
692
702
724
734
770
793
794
808
860
864
868
879
882
1338
2153
2158
2159
2176
2208
2236
2682
2697
[ 431 ]
542
560
564
567
570
573
620
623
650
662
664
669
721
723
727
729
756
758
760
764
799
856
865
876
877
1221
1224
1228
1231
1279
2160
[ 432 ]
559
562
571
572
591
622
624
625
627
653
655
656
676
694
695
698
700
743
757
[ 433 ]
558
626
629
654
677
678
699
746
748
750
751
754
1245
[ 454 ]
2355
2383
2386
2408
2412
[ 455 ]
1986
2382
2387
2389
2402
2405
[ 456 ]
388
1987
1998
2351
2378
2388
2392
2398
2401
2403
[ 457 ]
396
397
407
413
787
1930
2255
2323
2336
2358
2362
2377
2395
2407
[ 458 ]
376
377
380
391
402
403
409
412
414
467
469
470
530
786
1874
1879
1886
2004
2249
2250
2252
2283
2349
2360
2361
2370
2379
2397
[ 459 ]
369
385
392
408
462
465
468
471
783
834
840
845
848
853
1092
1783
1881
1882
2171
2227
2247
2248
2254
2267
2274
2319
2320
2321
2369
2372
2375
[ 460 ]
371
463
475
478
496
532
533
548
549
608
609
670
788
841
846
852
896
941
1579
1880
2163
2170
2180
2245
2246
2305
2339
[ 461 ]
373
483
485
488
489
490
498
499
507
535
587
615
619
630
634
635
667
668
688
765
768
773
776
795
842
847
849
854
855
863
871
892
895
897
2162
2165
2206
2207
2222
2234
2270
2272
2273
2314
2341
[ 462 ]
501
544
551
566
631
659
661
666
672
673
674
712
759
766
767
771
774
857
858
867
2209
2290
2316
[ 463 ]
537
541
641
644
646
652
658
660
762
866
883
885
886
2161
2175
[ 464 ]
538
649
736
747
752
755
761
[ 465 ]
651
679
722
744
749
753
[ 466 ]
745
[ 487 ]
2385
2390
2404
[ 488 ]
2381
[ 489 ]
394
395
411
2301
2396
[ 490 ]
367
381
401
404
410
416
417
441
453
529
2256
2282
2309
2324
2380
[ 491 ]
379
406
415
464
472
486
491
492
495
509
526
785
2259
2266
2269
2281
2299
2300
2303
2304
2306
2393
[ 492 ]
437
450
474
503
504
508
510
1074
2264
2265
2268
2279
2296
2310
2312
2313
2318
[ 493 ]
372
393
443
484
494
536
545
775
893
2169
2260
2271
2284
2286
2288
2292
2293
2294
2295
2297
2311
[ 494 ]
422
481
482
487
493
497
502
642
645
730
741
2166
2167
2287
2315
[ 495 ]
500
643
740
[ 496 ]
539
540
647
742
[ 497 ]
648
[ 517 ]
2384
[ 521 ]
400
459
460
2258
[ 522 ]
364
451
452
454
456
2280
2308
[ 523 ]
405
438
524
527
2257
2302
2307
[ 524 ]
374
375
439
440
442
516
521
522
525
528
2262
2263
2277
2278
2285
2298
2317
[ 525 ]
423
436
449
479
511
515
523
2261
2275
2276
2291
[ 526 ]
420
[ 527 ]
73
[ 554 ]
366
378
458
[ 555 ]
368
418
419
455
457
519
[ 556 ]
445
448
461
520
[ 557 ]
444
446
518
[ 558 ]
426
428
447
513
2289
[ 559 ]
72
425
427
432
512
[ 560 ]
81
[ 561 ]
61
[ 562 ]
8
[ 582 ]
302
[ 586 ]
360
[ 587 ]
362
363
[ 589 ]
424
433
435
[ 590 ]
421
434
514
517
[ 591 ]
79
[ 592 ]
60
80
429
430
[ 593 ]
70
71
[ 594 ]
7
62
[ 615 ]
314
[ 616 ]
246
303
313
[ 617 ]
345
357
[ 618 ]
361
365
[ 619 ]
311
344
[ 620 ]
309
[ 622 ]
83
[ 623 ]
431
[ 624 ]
59
78
[ 625 ]
11
[ 626 ]
4
5
9
58
63
[ 646 ]
263
[ 647 ]
247
248
[ 648 ]
305
[ 649 ]
317
356
358
359
[ 650 ]
312
[ 652 ]
308
310
[ 654 ]
54
97
[ 655 ]
12
84
85
[ 656 ]
68
74
[ 657 ]
3
64
65
69
82
[ 658 ]
76
[ 659 ]
2
6
[ 677 ]
260
261
265
350
[ 678 ]
324
[ 679 ]
245
315
329
349
354
[ 680 ]
316
346
351
352
355
[ 681 ]
267
268
319
342
[ 682 ]
306
307
340
[ 683 ]
341
[ 684 ]
282
[ 685 ]
14
336
[ 686 ]
16
57
[ 687 ]
87
93
96
[ 688 ]
86
88
95
106
111
[ 689 ]
105
[ 690 ]
77
[ 691 ]
1
[ 710 ]
264
327
328
[ 711 ]
249
262
325
326
347
[ 712 ]
266
304
[ 713 ]
301
318
353
[ 714 ]
205
[ 715 ]
208
216
337
343
[ 716 ]
338
[ 717 ]
13
[ 719 ]
15
45
107
[ 720 ]
10
55
66
92
100
109
[ 721 ]
67
98
99
[ 722 ]
75
91
[ 742 ]
257
258
[ 743 ]
242
270
348
[ 744 ]
206
244
269
298
[ 745 ]
233
234
241
[ 746 ]
213
215
217
218
299
300
[ 747 ]
221
286
289
335
339
[ 748 ]
207
212
280
283
[ 749 ]
220
[ 750 ]
191
[ 751 ]
17
53
89
101
199
[ 752 ]
46
90
103
104
[ 753 ]
48
56
94
110
118
183
[ 754 ]
114
120
[ 774 ]
256
259
320
[ 775 ]
232
322
330
[ 776 ]
228
237
291
323
331
[ 777 ]
226
227
290
[ 778 ]
143
148
278
279
[ 779 ]
209
211
214
[ 780 ]
219
281
[ 781 ]
186
[ 782 ]
188
192
198
[ 783 ]
18
19
42
50
51
187
[ 784 ]
40
43
47
102
108
116
190
[ 785 ]
41
44
115
182
[ 786 ]
113
119
[ 806 ]
255
[ 807 ]
229
251
321
[ 808 ]
230
238
243
250
271
297
333
[ 809 ]
147
235
240
332
[ 810 ]
150
204
223
276
277
292
294
334
[ 811 ]
133
149
152
210
287
[ 812 ]
31
126
134
203
284
288
[ 813 ]
26
28
196
197
[ 814 ]
29
52
163
195
201
[ 815 ]
123
189
[ 816 ]
39
49
185
[ 817 ]
38
112
122
[ 818 ]
117
121
[ 839 ]
272
[ 840 ]
144
231
236
[ 841 ]
295
296
[ 842 ]
138
225
[ 843 ]
30
142
222
[ 844 ]
135
153
193
[ 845 ]
35
129
[ 846 ]
27
125
130
162
200
202
[ 847 ]
20
21
23
[ 848 ]
24
25
180
181
184
[ 849 ]
37
[ 870 ]
252
[ 871 ]
254
[ 872 ]
239
[ 873 ]
224
275
[ 874 ]
137
293
[ 875 ]
132
139
141
154
155
285
[ 876 ]
140
151
165
[ 877 ]
128
131
164
[ 878 ]
124
170
194
[ 879 ]
34
36
[ 880 ]
22
171
173
[ 901 ]
253
[ 904 ]
273
[ 905 ]
145
146
[ 906 ]
274
[ 908 ]
136
166
167
169
[ 909 ]
127
[ 910 ]
33
161
174
[ 912 ]
172
[ 940 ]
156
[ 941 ]
32
[ 942 ]
175
[ 944 ]
179
[ 969 ]
158
[ 970 ]
157
[ 972 ]
159
168
[ 976 ]
178
[ 1005 ]
160
[ 1006 ]
176
[ 1008 ]
177
